V -t * -v 1.0a5 -a 0
A -t * -n 1 -p 0 -o 0x7fffffff -c 30 -a 1
A -t * -h 1 -m 1073741823 -s 0
c -t * -i 4 -n purple
c -t * -i 5 -n violet
c -t * -i 1 -n red
c -t * -i 2 -n green
c -t * -i 3 -n blue
n -t * -a 4 -s 4 -S UP -v circle -c black -i black
n -t * -a 0 -s 0 -S UP -v circle -c black -i black
n -t * -a 1 -s 1 -S UP -v circle -c black -i black
n -t * -a 2 -s 2 -S UP -v circle -c black -i black
n -t * -a 3 -s 3 -S UP -v circle -c black -i black
X -t * -n 5 -r 1Mb -D 10ms -o left
L -t * -s 5 -d 0 -o up
L -t * -s 5 -d 1 -o down
L -t * -s 5 -d 2 -o up
L -t * -s 5 -d 3 -o down
L -t * -s 5 -d 4 -o up
h -t 1 -s 0 -d 5 -p tcp -e 40 -c 1 -i 0 -a 1 -x {0.0 2.0 0 ------- null}
+ -t 1.01 -s 0 -d 5 -p tcp -e 40 -c 1 -i 0 -a 1 -x {0.0 2.0 0 ------- null}
- -t 1.01 -s 0 -d 5 -p tcp -e 40 -c 1 -i 0 -a 1 -x {0.0 2.0 0 ------- null}
h -t 1.01 -s 0 -d 5 -p tcp -e 40 -c 1 -i 0 -a 1 -x {0.0 2.0 -1 ------- null}
r -t 1.020516 -s 5 -d 2 -p tcp -e 40 -c 1 -i 0 -a 1 -x {0.0 2.0 0 ------- null}
h -t 1.020516 -s 2 -d 5 -p ack -e 40 -c 1 -i 1 -a 1 -x {2.0 0.0 0 ------- null}
+ -t 1.030516 -s 2 -d 5 -p ack -e 40 -c 1 -i 1 -a 1 -x {2.0 0.0 0 ------- null}
- -t 1.030516 -s 2 -d 5 -p ack -e 40 -c 1 -i 1 -a 1 -x {2.0 0.0 0 ------- null}
h -t 1.030516 -s 2 -d 5 -p ack -e 40 -c 1 -i 1 -a 1 -x {2.0 0.0 -1 ------- null}
r -t 1.041032 -s 5 -d 0 -p ack -e 40 -c 1 -i 1 -a 1 -x {2.0 0.0 0 ------- null}
h -t 1.041032 -s 0 -d 5 -p tcp -e 1040 -c 1 -i 2 -a 1 -x {0.0 2.0 1 ------- null}
h -t 1.041032 -s 0 -d 5 -p tcp -e 1040 -c 1 -i 3 -a 1 -x {0.0 2.0 2 ------- null}
+ -t 1.051032 -s 0 -d 5 -p tcp -e 1040 -c 1 -i 2 -a 1 -x {0.0 2.0 1 ------- null}
- -t 1.051032 -s 0 -d 5 -p tcp -e 1040 -c 1 -i 2 -a 1 -x {0.0 2.0 1 ------- null}
h -t 1.051032 -s 0 -d 5 -p tcp -e 1040 -c 1 -i 2 -a 1 -x {0.0 2.0 -1 ------- null}
+ -t 1.051032 -s 0 -d 5 -p tcp -e 1040 -c 1 -i 3 -a 1 -x {0.0 2.0 2 ------- null}
- -t 1.05956 -s 0 -d 5 -p tcp -e 1040 -c 1 -i 3 -a 1 -x {0.0 2.0 2 ------- null}
h -t 1.05956 -s 0 -d 5 -p tcp -e 1040 -c 1 -i 3 -a 1 -x {0.0 2.0 -1 ------- null}
r -t 1.069468 -s 5 -d 2 -p tcp -e 1040 -c 1 -i 2 -a 1 -x {0.0 2.0 1 ------- null}
h -t 1.069468 -s 2 -d 5 -p ack -e 40 -c 1 -i 4 -a 1 -x {2.0 0.0 1 ------- null}
r -t 1.077996 -s 5 -d 2 -p tcp -e 1040 -c 1 -i 3 -a 1 -x {0.0 2.0 2 ------- null}
h -t 1.077996 -s 2 -d 5 -p ack -e 40 -c 1 -i 5 -a 1 -x {2.0 0.0 2 ------- null}
+ -t 1.079468 -s 2 -d 5 -p ack -e 40 -c 1 -i 4 -a 1 -x {2.0 0.0 1 ------- null}
- -t 1.079468 -s 2 -d 5 -p ack -e 40 -c 1 -i 4 -a 1 -x {2.0 0.0 1 ------- null}
h -t 1.079468 -s 2 -d 5 -p ack -e 40 -c 1 -i 4 -a 1 -x {2.0 0.0 -1 ------- null}
+ -t 1.087996 -s 2 -d 5 -p ack -e 40 -c 1 -i 5 -a 1 -x {2.0 0.0 2 ------- null}
- -t 1.087996 -s 2 -d 5 -p ack -e 40 -c 1 -i 5 -a 1 -x {2.0 0.0 2 ------- null}
h -t 1.087996 -s 2 -d 5 -p ack -e 40 -c 1 -i 5 -a 1 -x {2.0 0.0 -1 ------- null}
r -t 1.089984 -s 5 -d 0 -p ack -e 40 -c 1 -i 4 -a 1 -x {2.0 0.0 1 ------- null}
h -t 1.089984 -s 0 -d 5 -p tcp -e 1040 -c 1 -i 6 -a 1 -x {0.0 2.0 3 ------- null}
h -t 1.089984 -s 0 -d 5 -p tcp -e 1040 -c 1 -i 7 -a 1 -x {0.0 2.0 4 ------- null}
r -t 1.098512 -s 5 -d 0 -p ack -e 40 -c 1 -i 5 -a 1 -x {2.0 0.0 2 ------- null}
h -t 1.098512 -s 0 -d 5 -p tcp -e 1040 -c 1 -i 8 -a 1 -x {0.0 2.0 5 ------- null}
h -t 1.098512 -s 0 -d 5 -p tcp -e 1040 -c 1 -i 9 -a 1 -x {0.0 2.0 6 ------- null}
+ -t 1.099984 -s 0 -d 5 -p tcp -e 1040 -c 1 -i 6 -a 1 -x {0.0 2.0 3 ------- null}
- -t 1.099984 -s 0 -d 5 -p tcp -e 1040 -c 1 -i 6 -a 1 -x {0.0 2.0 3 ------- null}
h -t 1.099984 -s 0 -d 5 -p tcp -e 1040 -c 1 -i 6 -a 1 -x {0.0 2.0 -1 ------- null}
+ -t 1.099984 -s 0 -d 5 -p tcp -e 1040 -c 1 -i 7 -a 1 -x {0.0 2.0 4 ------- null}
+ -t 1.108512 -s 0 -d 5 -p tcp -e 1040 -c 1 -i 8 -a 1 -x {0.0 2.0 5 ------- null}
+ -t 1.108512 -s 0 -d 5 -p tcp -e 1040 -c 1 -i 9 -a 1 -x {0.0 2.0 6 ------- null}
- -t 1.108512 -s 0 -d 5 -p tcp -e 1040 -c 1 -i 7 -a 1 -x {0.0 2.0 4 ------- null}
h -t 1.108512 -s 0 -d 5 -p tcp -e 1040 -c 1 -i 7 -a 1 -x {0.0 2.0 -1 ------- null}
- -t 1.11704 -s 0 -d 5 -p tcp -e 1040 -c 1 -i 8 -a 1 -x {0.0 2.0 5 ------- null}
h -t 1.11704 -s 0 -d 5 -p tcp -e 1040 -c 1 -i 8 -a 1 -x {0.0 2.0 -1 ------- null}
r -t 1.11842 -s 5 -d 2 -p tcp -e 1040 -c 1 -i 6 -a 1 -x {0.0 2.0 3 ------- null}
h -t 1.11842 -s 2 -d 5 -p ack -e 40 -c 1 -i 10 -a 1 -x {2.0 0.0 3 ------- null}
- -t 1.125568 -s 0 -d 5 -p tcp -e 1040 -c 1 -i 9 -a 1 -x {0.0 2.0 6 ------- null}
h -t 1.125568 -s 0 -d 5 -p tcp -e 1040 -c 1 -i 9 -a 1 -x {0.0 2.0 -1 ------- null}
r -t 1.126948 -s 5 -d 2 -p tcp -e 1040 -c 1 -i 7 -a 1 -x {0.0 2.0 4 ------- null}
h -t 1.126948 -s 2 -d 5 -p ack -e 40 -c 1 -i 11 -a 1 -x {2.0 0.0 4 ------- null}
+ -t 1.12842 -s 2 -d 5 -p ack -e 40 -c 1 -i 10 -a 1 -x {2.0 0.0 3 ------- null}
- -t 1.12842 -s 2 -d 5 -p ack -e 40 -c 1 -i 10 -a 1 -x {2.0 0.0 3 ------- null}
h -t 1.12842 -s 2 -d 5 -p ack -e 40 -c 1 -i 10 -a 1 -x {2.0 0.0 -1 ------- null}
r -t 1.135476 -s 5 -d 2 -p tcp -e 1040 -c 1 -i 8 -a 1 -x {0.0 2.0 5 ------- null}
h -t 1.135476 -s 2 -d 5 -p ack -e 40 -c 1 -i 12 -a 1 -x {2.0 0.0 5 ------- null}
+ -t 1.136948 -s 2 -d 5 -p ack -e 40 -c 1 -i 11 -a 1 -x {2.0 0.0 4 ------- null}
- -t 1.136948 -s 2 -d 5 -p ack -e 40 -c 1 -i 11 -a 1 -x {2.0 0.0 4 ------- null}
h -t 1.136948 -s 2 -d 5 -p ack -e 40 -c 1 -i 11 -a 1 -x {2.0 0.0 -1 ------- null}
r -t 1.144004 -s 5 -d 2 -p tcp -e 1040 -c 1 -i 9 -a 1 -x {0.0 2.0 6 ------- null}
h -t 1.144004 -s 2 -d 5 -p ack -e 40 -c 1 -i 13 -a 1 -x {2.0 0.0 6 ------- null}
r -t 1.144616 -s 5 -d 0 -p ack -e 40 -c 1 -i 10 -a 1 -x {2.0 0.0 3 ------- null}
h -t 1.144616 -s 0 -d 5 -p tcp -e 1040 -c 1 -i 14 -a 1 -x {0.0 2.0 7 ------- null}
h -t 1.144616 -s 0 -d 5 -p tcp -e 1040 -c 1 -i 15 -a 1 -x {0.0 2.0 8 ------- null}
+ -t 1.145476 -s 2 -d 5 -p ack -e 40 -c 1 -i 12 -a 1 -x {2.0 0.0 5 ------- null}
- -t 1.145476 -s 2 -d 5 -p ack -e 40 -c 1 -i 12 -a 1 -x {2.0 0.0 5 ------- null}
h -t 1.145476 -s 2 -d 5 -p ack -e 40 -c 1 -i 12 -a 1 -x {2.0 0.0 -1 ------- null}
r -t 1.147464 -s 5 -d 0 -p ack -e 40 -c 1 -i 11 -a 1 -x {2.0 0.0 4 ------- null}
h -t 1.147464 -s 0 -d 5 -p tcp -e 1040 -c 1 -i 16 -a 1 -x {0.0 2.0 9 ------- null}
h -t 1.147464 -s 0 -d 5 -p tcp -e 1040 -c 1 -i 17 -a 1 -x {0.0 2.0 10 ------- null}
+ -t 1.154004 -s 2 -d 5 -p ack -e 40 -c 1 -i 13 -a 1 -x {2.0 0.0 6 ------- null}
- -t 1.154004 -s 2 -d 5 -p ack -e 40 -c 1 -i 13 -a 1 -x {2.0 0.0 6 ------- null}
h -t 1.154004 -s 2 -d 5 -p ack -e 40 -c 1 -i 13 -a 1 -x {2.0 0.0 -1 ------- null}
+ -t 1.154616 -s 0 -d 5 -p tcp -e 1040 -c 1 -i 14 -a 1 -x {0.0 2.0 7 ------- null}
- -t 1.154616 -s 0 -d 5 -p tcp -e 1040 -c 1 -i 14 -a 1 -x {0.0 2.0 7 ------- null}
h -t 1.154616 -s 0 -d 5 -p tcp -e 1040 -c 1 -i 14 -a 1 -x {0.0 2.0 -1 ------- null}
+ -t 1.154616 -s 0 -d 5 -p tcp -e 1040 -c 1 -i 15 -a 1 -x {0.0 2.0 8 ------- null}
r -t 1.155992 -s 5 -d 0 -p ack -e 40 -c 1 -i 12 -a 1 -x {2.0 0.0 5 ------- null}
h -t 1.155992 -s 0 -d 5 -p tcp -e 1040 -c 1 -i 18 -a 1 -x {0.0 2.0 11 ------- null}
h -t 1.155992 -s 0 -d 5 -p tcp -e 1040 -c 1 -i 19 -a 1 -x {0.0 2.0 12 ------- null}
+ -t 1.157464 -s 0 -d 5 -p tcp -e 1040 -c 1 -i 16 -a 1 -x {0.0 2.0 9 ------- null}
+ -t 1.157464 -s 0 -d 5 -p tcp -e 1040 -c 1 -i 17 -a 1 -x {0.0 2.0 10 ------- null}
- -t 1.163144 -s 0 -d 5 -p tcp -e 1040 -c 1 -i 15 -a 1 -x {0.0 2.0 8 ------- null}
h -t 1.163144 -s 0 -d 5 -p tcp -e 1040 -c 1 -i 15 -a 1 -x {0.0 2.0 -1 ------- null}
r -t 1.16452 -s 5 -d 0 -p ack -e 40 -c 1 -i 13 -a 1 -x {2.0 0.0 6 ------- null}
h -t 1.16452 -s 0 -d 5 -p tcp -e 1040 -c 1 -i 20 -a 1 -x {0.0 2.0 13 ------- null}
h -t 1.16452 -s 0 -d 5 -p tcp -e 1040 -c 1 -i 21 -a 1 -x {0.0 2.0 14 ------- null}
+ -t 1.165992 -s 0 -d 5 -p tcp -e 1040 -c 1 -i 18 -a 1 -x {0.0 2.0 11 ------- null}
+ -t 1.165992 -s 0 -d 5 -p tcp -e 1040 -c 1 -i 19 -a 1 -x {0.0 2.0 12 ------- null}
- -t 1.171672 -s 0 -d 5 -p tcp -e 1040 -c 1 -i 16 -a 1 -x {0.0 2.0 9 ------- null}
h -t 1.171672 -s 0 -d 5 -p tcp -e 1040 -c 1 -i 16 -a 1 -x {0.0 2.0 -1 ------- null}
r -t 1.173052 -s 5 -d 2 -p tcp -e 1040 -c 1 -i 14 -a 1 -x {0.0 2.0 7 ------- null}
h -t 1.173052 -s 2 -d 5 -p ack -e 40 -c 1 -i 22 -a 1 -x {2.0 0.0 7 ------- null}
+ -t 1.17452 -s 0 -d 5 -p tcp -e 1040 -c 1 -i 20 -a 1 -x {0.0 2.0 13 ------- null}
+ -t 1.17452 -s 0 -d 5 -p tcp -e 1040 -c 1 -i 21 -a 1 -x {0.0 2.0 14 ------- null}
- -t 1.1802 -s 0 -d 5 -p tcp -e 1040 -c 1 -i 17 -a 1 -x {0.0 2.0 10 ------- null}
h -t 1.1802 -s 0 -d 5 -p tcp -e 1040 -c 1 -i 17 -a 1 -x {0.0 2.0 -1 ------- null}
r -t 1.18158 -s 5 -d 2 -p tcp -e 1040 -c 1 -i 15 -a 1 -x {0.0 2.0 8 ------- null}
h -t 1.18158 -s 2 -d 5 -p ack -e 40 -c 1 -i 23 -a 1 -x {2.0 0.0 8 ------- null}
+ -t 1.183052 -s 2 -d 5 -p ack -e 40 -c 1 -i 22 -a 1 -x {2.0 0.0 7 ------- null}
- -t 1.183052 -s 2 -d 5 -p ack -e 40 -c 1 -i 22 -a 1 -x {2.0 0.0 7 ------- null}
h -t 1.183052 -s 2 -d 5 -p ack -e 40 -c 1 -i 22 -a 1 -x {2.0 0.0 -1 ------- null}
- -t 1.188728 -s 0 -d 5 -p tcp -e 1040 -c 1 -i 18 -a 1 -x {0.0 2.0 11 ------- null}
h -t 1.188728 -s 0 -d 5 -p tcp -e 1040 -c 1 -i 18 -a 1 -x {0.0 2.0 -1 ------- null}
r -t 1.190108 -s 5 -d 2 -p tcp -e 1040 -c 1 -i 16 -a 1 -x {0.0 2.0 9 ------- null}
h -t 1.190108 -s 2 -d 5 -p ack -e 40 -c 1 -i 24 -a 1 -x {2.0 0.0 9 ------- null}
+ -t 1.19158 -s 2 -d 5 -p ack -e 40 -c 1 -i 23 -a 1 -x {2.0 0.0 8 ------- null}
- -t 1.197392 -s 0 -d 5 -p tcp -e 1040 -c 1 -i 19 -a 1 -x {0.0 2.0 12 ------- null}
h -t 1.197392 -s 0 -d 5 -p tcp -e 1040 -c 1 -i 19 -a 1 -x {0.0 2.0 -1 ------- null}
r -t 1.198636 -s 5 -d 2 -p tcp -e 1040 -c 1 -i 17 -a 1 -x {0.0 2.0 10 ------- null}
h -t 1.198636 -s 2 -d 5 -p ack -e 40 -c 1 -i 25 -a 1 -x {2.0 0.0 10 ------- null}
+ -t 1.200108 -s 2 -d 5 -p ack -e 40 -c 1 -i 24 -a 1 -x {2.0 0.0 9 ------- null}
- -t 1.206568 -s 0 -d 5 -p tcp -e 1040 -c 1 -i 20 -a 1 -x {0.0 2.0 13 ------- null}
h -t 1.206568 -s 0 -d 5 -p tcp -e 1040 -c 1 -i 20 -a 1 -x {0.0 2.0 -1 ------- null}
r -t 1.2073 -s 5 -d 2 -p tcp -e 1040 -c 1 -i 18 -a 1 -x {0.0 2.0 11 ------- null}
h -t 1.2073 -s 2 -d 5 -p ack -e 40 -c 1 -i 26 -a 1 -x {2.0 0.0 11 ------- null}
+ -t 1.208636 -s 2 -d 5 -p ack -e 40 -c 1 -i 25 -a 1 -x {2.0 0.0 10 ------- null}
- -t 1.215232 -s 0 -d 5 -p tcp -e 1040 -c 1 -i 21 -a 1 -x {0.0 2.0 14 ------- null}
h -t 1.215232 -s 0 -d 5 -p tcp -e 1040 -c 1 -i 21 -a 1 -x {0.0 2.0 -1 ------- null}
r -t 1.216476 -s 5 -d 2 -p tcp -e 1040 -c 1 -i 19 -a 1 -x {0.0 2.0 12 ------- null}
h -t 1.216476 -s 2 -d 5 -p ack -e 40 -c 1 -i 27 -a 1 -x {2.0 0.0 12 ------- null}
+ -t 1.2173 -s 2 -d 5 -p ack -e 40 -c 1 -i 26 -a 1 -x {2.0 0.0 11 ------- null}
- -t 1.22502 -s 2 -d 5 -p ack -e 40 -c 1 -i 23 -a 1 -x {2.0 0.0 8 ------- null}
h -t 1.22502 -s 2 -d 5 -p ack -e 40 -c 1 -i 23 -a 1 -x {2.0 0.0 -1 ------- null}
r -t 1.22514 -s 5 -d 2 -p tcp -e 1040 -c 1 -i 20 -a 1 -x {0.0 2.0 13 ------- null}
h -t 1.22514 -s 2 -d 5 -p ack -e 40 -c 1 -i 28 -a 1 -x {2.0 0.0 13 ------- null}
- -t 1.225628 -s 2 -d 5 -p ack -e 40 -c 1 -i 24 -a 1 -x {2.0 0.0 9 ------- null}
h -t 1.225628 -s 2 -d 5 -p ack -e 40 -c 1 -i 24 -a 1 -x {2.0 0.0 -1 ------- null}
- -t 1.226236 -s 2 -d 5 -p ack -e 40 -c 1 -i 25 -a 1 -x {2.0 0.0 10 ------- null}
h -t 1.226236 -s 2 -d 5 -p ack -e 40 -c 1 -i 25 -a 1 -x {2.0 0.0 -1 ------- null}
+ -t 1.226476 -s 2 -d 5 -p ack -e 40 -c 1 -i 27 -a 1 -x {2.0 0.0 12 ------- null}
- -t 1.226844 -s 2 -d 5 -p ack -e 40 -c 1 -i 26 -a 1 -x {2.0 0.0 11 ------- null}
h -t 1.226844 -s 2 -d 5 -p ack -e 40 -c 1 -i 26 -a 1 -x {2.0 0.0 -1 ------- null}
- -t 1.227452 -s 2 -d 5 -p ack -e 40 -c 1 -i 27 -a 1 -x {2.0 0.0 12 ------- null}
h -t 1.227452 -s 2 -d 5 -p ack -e 40 -c 1 -i 27 -a 1 -x {2.0 0.0 -1 ------- null}
r -t 1.234316 -s 5 -d 2 -p tcp -e 1040 -c 1 -i 21 -a 1 -x {0.0 2.0 14 ------- null}
h -t 1.234316 -s 2 -d 5 -p ack -e 40 -c 1 -i 29 -a 1 -x {2.0 0.0 14 ------- null}
r -t 1.234928 -s 5 -d 0 -p ack -e 40 -c 1 -i 22 -a 1 -x {2.0 0.0 7 ------- null}
h -t 1.234928 -s 0 -d 5 -p tcp -e 1040 -c 1 -i 30 -a 1 -x {0.0 2.0 15 ------- null}
h -t 1.234928 -s 0 -d 5 -p tcp -e 1040 -c 1 -i 31 -a 1 -x {0.0 2.0 16 ------- null}
+ -t 1.23514 -s 2 -d 5 -p ack -e 40 -c 1 -i 28 -a 1 -x {2.0 0.0 13 ------- null}
- -t 1.23514 -s 2 -d 5 -p ack -e 40 -c 1 -i 28 -a 1 -x {2.0 0.0 13 ------- null}
h -t 1.23514 -s 2 -d 5 -p ack -e 40 -c 1 -i 28 -a 1 -x {2.0 0.0 -1 ------- null}
r -t 1.235536 -s 5 -d 0 -p ack -e 40 -c 1 -i 23 -a 1 -x {2.0 0.0 8 ------- null}
h -t 1.235536 -s 0 -d 5 -p tcp -e 1040 -c 1 -i 32 -a 1 -x {0.0 2.0 17 ------- null}
h -t 1.235536 -s 0 -d 5 -p tcp -e 1040 -c 1 -i 33 -a 1 -x {0.0 2.0 18 ------- null}
r -t 1.236144 -s 5 -d 0 -p ack -e 40 -c 1 -i 24 -a 1 -x {2.0 0.0 9 ------- null}
h -t 1.236144 -s 0 -d 5 -p tcp -e 1040 -c 1 -i 34 -a 1 -x {0.0 2.0 19 ------- null}
h -t 1.236144 -s 0 -d 5 -p tcp -e 1040 -c 1 -i 35 -a 1 -x {0.0 2.0 20 ------- null}
r -t 1.236752 -s 5 -d 0 -p ack -e 40 -c 1 -i 25 -a 1 -x {2.0 0.0 10 ------- null}
h -t 1.236752 -s 0 -d 5 -p tcp -e 1040 -c 1 -i 36 -a 1 -x {0.0 2.0 21 ------- null}
h -t 1.236752 -s 0 -d 5 -p tcp -e 1040 -c 1 -i 37 -a 1 -x {0.0 2.0 22 ------- null}
r -t 1.23736 -s 5 -d 0 -p ack -e 40 -c 1 -i 26 -a 1 -x {2.0 0.0 11 ------- null}
h -t 1.23736 -s 0 -d 5 -p tcp -e 1040 -c 1 -i 38 -a 1 -x {0.0 2.0 23 ------- null}
h -t 1.23736 -s 0 -d 5 -p tcp -e 1040 -c 1 -i 39 -a 1 -x {0.0 2.0 24 ------- null}
r -t 1.237968 -s 5 -d 0 -p ack -e 40 -c 1 -i 27 -a 1 -x {2.0 0.0 12 ------- null}
h -t 1.237968 -s 0 -d 5 -p tcp -e 1040 -c 1 -i 40 -a 1 -x {0.0 2.0 25 ------- null}
h -t 1.237968 -s 0 -d 5 -p tcp -e 1040 -c 1 -i 41 -a 1 -x {0.0 2.0 26 ------- null}
+ -t 1.244316 -s 2 -d 5 -p ack -e 40 -c 1 -i 29 -a 1 -x {2.0 0.0 14 ------- null}
- -t 1.244316 -s 2 -d 5 -p ack -e 40 -c 1 -i 29 -a 1 -x {2.0 0.0 14 ------- null}
h -t 1.244316 -s 2 -d 5 -p ack -e 40 -c 1 -i 29 -a 1 -x {2.0 0.0 -1 ------- null}
+ -t 1.244928 -s 0 -d 5 -p tcp -e 1040 -c 1 -i 30 -a 1 -x {0.0 2.0 15 ------- null}
- -t 1.244928 -s 0 -d 5 -p tcp -e 1040 -c 1 -i 30 -a 1 -x {0.0 2.0 15 ------- null}
h -t 1.244928 -s 0 -d 5 -p tcp -e 1040 -c 1 -i 30 -a 1 -x {0.0 2.0 -1 ------- null}
+ -t 1.244928 -s 0 -d 5 -p tcp -e 1040 -c 1 -i 31 -a 1 -x {0.0 2.0 16 ------- null}
+ -t 1.245536 -s 0 -d 5 -p tcp -e 1040 -c 1 -i 32 -a 1 -x {0.0 2.0 17 ------- null}
+ -t 1.245536 -s 0 -d 5 -p tcp -e 1040 -c 1 -i 33 -a 1 -x {0.0 2.0 18 ------- null}
r -t 1.245656 -s 5 -d 0 -p ack -e 40 -c 1 -i 28 -a 1 -x {2.0 0.0 13 ------- null}
h -t 1.245656 -s 0 -d 5 -p tcp -e 1040 -c 1 -i 42 -a 1 -x {0.0 2.0 27 ------- null}
h -t 1.245656 -s 0 -d 5 -p tcp -e 1040 -c 1 -i 43 -a 1 -x {0.0 2.0 28 ------- null}
+ -t 1.246144 -s 0 -d 5 -p tcp -e 1040 -c 1 -i 34 -a 1 -x {0.0 2.0 19 ------- null}
+ -t 1.246144 -s 0 -d 5 -p tcp -e 1040 -c 1 -i 35 -a 1 -x {0.0 2.0 20 ------- null}
+ -t 1.246752 -s 0 -d 5 -p tcp -e 1040 -c 1 -i 36 -a 1 -x {0.0 2.0 21 ------- null}
+ -t 1.246752 -s 0 -d 5 -p tcp -e 1040 -c 1 -i 37 -a 1 -x {0.0 2.0 22 ------- null}
+ -t 1.24736 -s 0 -d 5 -p tcp -e 1040 -c 1 -i 38 -a 1 -x {0.0 2.0 23 ------- null}
+ -t 1.24736 -s 0 -d 5 -p tcp -e 1040 -c 1 -i 39 -a 1 -x {0.0 2.0 24 ------- null}
+ -t 1.247968 -s 0 -d 5 -p tcp -e 1040 -c 1 -i 40 -a 1 -x {0.0 2.0 25 ------- null}
+ -t 1.247968 -s 0 -d 5 -p tcp -e 1040 -c 1 -i 41 -a 1 -x {0.0 2.0 26 ------- null}
- -t 1.253456 -s 0 -d 5 -p tcp -e 1040 -c 1 -i 31 -a 1 -x {0.0 2.0 16 ------- null}
h -t 1.253456 -s 0 -d 5 -p tcp -e 1040 -c 1 -i 31 -a 1 -x {0.0 2.0 -1 ------- null}
r -t 1.254832 -s 5 -d 0 -p ack -e 40 -c 1 -i 29 -a 1 -x {2.0 0.0 14 ------- null}
h -t 1.254832 -s 0 -d 5 -p tcp -e 1040 -c 1 -i 44 -a 1 -x {0.0 2.0 29 ------- null}
h -t 1.254832 -s 0 -d 5 -p tcp -e 1040 -c 1 -i 45 -a 1 -x {0.0 2.0 30 ------- null}
+ -t 1.255656 -s 0 -d 5 -p tcp -e 1040 -c 1 -i 42 -a 1 -x {0.0 2.0 27 ------- null}
+ -t 1.255656 -s 0 -d 5 -p tcp -e 1040 -c 1 -i 43 -a 1 -x {0.0 2.0 28 ------- null}
- -t 1.261984 -s 0 -d 5 -p tcp -e 1040 -c 1 -i 32 -a 1 -x {0.0 2.0 17 ------- null}
h -t 1.261984 -s 0 -d 5 -p tcp -e 1040 -c 1 -i 32 -a 1 -x {0.0 2.0 -1 ------- null}
r -t 1.263364 -s 5 -d 2 -p tcp -e 1040 -c 1 -i 30 -a 1 -x {0.0 2.0 15 ------- null}
h -t 1.263364 -s 2 -d 5 -p ack -e 40 -c 1 -i 46 -a 1 -x {2.0 0.0 15 ------- null}
+ -t 1.264832 -s 0 -d 5 -p tcp -e 1040 -c 1 -i 44 -a 1 -x {0.0 2.0 29 ------- null}
+ -t 1.264832 -s 0 -d 5 -p tcp -e 1040 -c 1 -i 45 -a 1 -x {0.0 2.0 30 ------- null}
- -t 1.270512 -s 0 -d 5 -p tcp -e 1040 -c 1 -i 33 -a 1 -x {0.0 2.0 18 ------- null}
h -t 1.270512 -s 0 -d 5 -p tcp -e 1040 -c 1 -i 33 -a 1 -x {0.0 2.0 -1 ------- null}
r -t 1.271892 -s 5 -d 2 -p tcp -e 1040 -c 1 -i 31 -a 1 -x {0.0 2.0 16 ------- null}
h -t 1.271892 -s 2 -d 5 -p ack -e 40 -c 1 -i 47 -a 1 -x {2.0 0.0 16 ------- null}
+ -t 1.273364 -s 2 -d 5 -p ack -e 40 -c 1 -i 46 -a 1 -x {2.0 0.0 15 ------- null}
- -t 1.273364 -s 2 -d 5 -p ack -e 40 -c 1 -i 46 -a 1 -x {2.0 0.0 15 ------- null}
h -t 1.273364 -s 2 -d 5 -p ack -e 40 -c 1 -i 46 -a 1 -x {2.0 0.0 -1 ------- null}
- -t 1.27904 -s 0 -d 5 -p tcp -e 1040 -c 1 -i 34 -a 1 -x {0.0 2.0 19 ------- null}
h -t 1.27904 -s 0 -d 5 -p tcp -e 1040 -c 1 -i 34 -a 1 -x {0.0 2.0 -1 ------- null}
r -t 1.28042 -s 5 -d 2 -p tcp -e 1040 -c 1 -i 32 -a 1 -x {0.0 2.0 17 ------- null}
h -t 1.28042 -s 2 -d 5 -p ack -e 40 -c 1 -i 48 -a 1 -x {2.0 0.0 17 ------- null}
+ -t 1.281892 -s 2 -d 5 -p ack -e 40 -c 1 -i 47 -a 1 -x {2.0 0.0 16 ------- null}
- -t 1.281892 -s 2 -d 5 -p ack -e 40 -c 1 -i 47 -a 1 -x {2.0 0.0 16 ------- null}
h -t 1.281892 -s 2 -d 5 -p ack -e 40 -c 1 -i 47 -a 1 -x {2.0 0.0 -1 ------- null}
r -t 1.288948 -s 5 -d 2 -p tcp -e 1040 -c 1 -i 33 -a 1 -x {0.0 2.0 18 ------- null}
h -t 1.288948 -s 2 -d 5 -p ack -e 40 -c 1 -i 49 -a 1 -x {2.0 0.0 18 ------- null}
- -t 1.289368 -s 0 -d 5 -p tcp -e 1040 -c 1 -i 35 -a 1 -x {0.0 2.0 20 ------- null}
h -t 1.289368 -s 0 -d 5 -p tcp -e 1040 -c 1 -i 35 -a 1 -x {0.0 2.0 -1 ------- null}
r -t 1.289824 -s 5 -d 0 -p ack -e 40 -c 1 -i 46 -a 1 -x {2.0 0.0 15 ------- null}
h -t 1.289824 -s 0 -d 5 -p tcp -e 1040 -c 1 -i 50 -a 1 -x {0.0 2.0 31 ------- null}
h -t 1.289824 -s 0 -d 5 -p tcp -e 1040 -c 1 -i 51 -a 1 -x {0.0 2.0 32 ------- null}
+ -t 1.29042 -s 2 -d 5 -p ack -e 40 -c 1 -i 48 -a 1 -x {2.0 0.0 17 ------- null}
- -t 1.298672 -s 0 -d 5 -p tcp -e 1040 -c 1 -i 36 -a 1 -x {0.0 2.0 21 ------- null}
h -t 1.298672 -s 0 -d 5 -p tcp -e 1040 -c 1 -i 36 -a 1 -x {0.0 2.0 -1 ------- null}
+ -t 1.298948 -s 2 -d 5 -p ack -e 40 -c 1 -i 49 -a 1 -x {2.0 0.0 18 ------- null}
r -t 1.299276 -s 5 -d 2 -p tcp -e 1040 -c 1 -i 34 -a 1 -x {0.0 2.0 19 ------- null}
h -t 1.299276 -s 2 -d 5 -p ack -e 40 -c 1 -i 52 -a 1 -x {2.0 0.0 19 ------- null}
+ -t 1.299824 -s 0 -d 5 -p tcp -e 1040 -c 1 -i 50 -a 1 -x {0.0 2.0 31 ------- null}
+ -t 1.299824 -s 0 -d 5 -p tcp -e 1040 -c 1 -i 51 -a 1 -x {0.0 2.0 32 ------- null}
- -t 1.307848 -s 0 -d 5 -p tcp -e 1040 -c 1 -i 37 -a 1 -x {0.0 2.0 22 ------- null}
h -t 1.307848 -s 0 -d 5 -p tcp -e 1040 -c 1 -i 37 -a 1 -x {0.0 2.0 -1 ------- null}
r -t 1.30858 -s 5 -d 2 -p tcp -e 1040 -c 1 -i 35 -a 1 -x {0.0 2.0 20 ------- null}
h -t 1.30858 -s 2 -d 5 -p ack -e 40 -c 1 -i 53 -a 1 -x {2.0 0.0 20 ------- null}
+ -t 1.309276 -s 2 -d 5 -p ack -e 40 -c 1 -i 52 -a 1 -x {2.0 0.0 19 ------- null}
- -t 1.316512 -s 0 -d 5 -p tcp -e 1040 -c 1 -i 38 -a 1 -x {0.0 2.0 23 ------- null}
h -t 1.316512 -s 0 -d 5 -p tcp -e 1040 -c 1 -i 38 -a 1 -x {0.0 2.0 -1 ------- null}
r -t 1.317756 -s 5 -d 2 -p tcp -e 1040 -c 1 -i 36 -a 1 -x {0.0 2.0 21 ------- null}
h -t 1.317756 -s 2 -d 5 -p ack -e 40 -c 1 -i 54 -a 1 -x {2.0 0.0 21 ------- null}
+ -t 1.31858 -s 2 -d 5 -p ack -e 40 -c 1 -i 53 -a 1 -x {2.0 0.0 20 ------- null}
- -t 1.325688 -s 0 -d 5 -p tcp -e 1040 -c 1 -i 39 -a 1 -x {0.0 2.0 24 ------- null}
h -t 1.325688 -s 0 -d 5 -p tcp -e 1040 -c 1 -i 39 -a 1 -x {0.0 2.0 -1 ------- null}
r -t 1.32642 -s 5 -d 2 -p tcp -e 1040 -c 1 -i 37 -a 1 -x {0.0 2.0 22 ------- null}
h -t 1.32642 -s 2 -d 5 -p ack -e 40 -c 1 -i 55 -a 1 -x {2.0 0.0 22 ------- null}
+ -t 1.327756 -s 2 -d 5 -p ack -e 40 -c 1 -i 54 -a 1 -x {2.0 0.0 21 ------- null}
- -t 1.334864 -s 0 -d 5 -p tcp -e 1040 -c 1 -i 40 -a 1 -x {0.0 2.0 25 ------- null}
h -t 1.334864 -s 0 -d 5 -p tcp -e 1040 -c 1 -i 40 -a 1 -x {0.0 2.0 -1 ------- null}
r -t 1.335596 -s 5 -d 2 -p tcp -e 1040 -c 1 -i 38 -a 1 -x {0.0 2.0 23 ------- null}
h -t 1.335596 -s 2 -d 5 -p ack -e 40 -c 1 -i 56 -a 1 -x {2.0 0.0 23 ------- null}
+ -t 1.33642 -s 2 -d 5 -p ack -e 40 -c 1 -i 55 -a 1 -x {2.0 0.0 22 ------- null}
- -t 1.343392 -s 0 -d 5 -p tcp -e 1040 -c 1 -i 41 -a 1 -x {0.0 2.0 26 ------- null}
h -t 1.343392 -s 0 -d 5 -p tcp -e 1040 -c 1 -i 41 -a 1 -x {0.0 2.0 -1 ------- null}
r -t 1.344772 -s 5 -d 2 -p tcp -e 1040 -c 1 -i 39 -a 1 -x {0.0 2.0 24 ------- null}
h -t 1.344772 -s 2 -d 5 -p ack -e 40 -c 1 -i 57 -a 1 -x {2.0 0.0 24 ------- null}
+ -t 1.345596 -s 2 -d 5 -p ack -e 40 -c 1 -i 56 -a 1 -x {2.0 0.0 23 ------- null}
- -t 1.352056 -s 0 -d 5 -p tcp -e 1040 -c 1 -i 42 -a 1 -x {0.0 2.0 27 ------- null}
h -t 1.352056 -s 0 -d 5 -p tcp -e 1040 -c 1 -i 42 -a 1 -x {0.0 2.0 -1 ------- null}
r -t 1.3533 -s 5 -d 2 -p tcp -e 1040 -c 1 -i 40 -a 1 -x {0.0 2.0 25 ------- null}
h -t 1.3533 -s 2 -d 5 -p ack -e 40 -c 1 -i 58 -a 1 -x {2.0 0.0 25 ------- null}
+ -t 1.354772 -s 2 -d 5 -p ack -e 40 -c 1 -i 57 -a 1 -x {2.0 0.0 24 ------- null}
- -t 1.360584 -s 0 -d 5 -p tcp -e 1040 -c 1 -i 43 -a 1 -x {0.0 2.0 28 ------- null}
h -t 1.360584 -s 0 -d 5 -p tcp -e 1040 -c 1 -i 43 -a 1 -x {0.0 2.0 -1 ------- null}
r -t 1.361964 -s 5 -d 2 -p tcp -e 1040 -c 1 -i 41 -a 1 -x {0.0 2.0 26 ------- null}
h -t 1.361964 -s 2 -d 5 -p ack -e 40 -c 1 -i 59 -a 1 -x {2.0 0.0 26 ------- null}
+ -t 1.3633 -s 2 -d 5 -p ack -e 40 -c 1 -i 58 -a 1 -x {2.0 0.0 25 ------- null}
- -t 1.369112 -s 0 -d 5 -p tcp -e 1040 -c 1 -i 44 -a 1 -x {0.0 2.0 29 ------- null}
h -t 1.369112 -s 0 -d 5 -p tcp -e 1040 -c 1 -i 44 -a 1 -x {0.0 2.0 -1 ------- null}
r -t 1.370492 -s 5 -d 2 -p tcp -e 1040 -c 1 -i 42 -a 1 -x {0.0 2.0 27 ------- null}
h -t 1.370492 -s 2 -d 5 -p ack -e 40 -c 1 -i 60 -a 1 -x {2.0 0.0 27 ------- null}
+ -t 1.371964 -s 2 -d 5 -p ack -e 40 -c 1 -i 59 -a 1 -x {2.0 0.0 26 ------- null}
- -t 1.37764 -s 0 -d 5 -p tcp -e 1040 -c 1 -i 45 -a 1 -x {0.0 2.0 30 ------- null}
h -t 1.37764 -s 0 -d 5 -p tcp -e 1040 -c 1 -i 45 -a 1 -x {0.0 2.0 -1 ------- null}
r -t 1.37902 -s 5 -d 2 -p tcp -e 1040 -c 1 -i 43 -a 1 -x {0.0 2.0 28 ------- null}
h -t 1.37902 -s 2 -d 5 -p ack -e 40 -c 1 -i 61 -a 1 -x {2.0 0.0 28 ------- null}
+ -t 1.380492 -s 2 -d 5 -p ack -e 40 -c 1 -i 60 -a 1 -x {2.0 0.0 27 ------- null}
- -t 1.386168 -s 0 -d 5 -p tcp -e 1040 -c 1 -i 50 -a 1 -x {0.0 2.0 31 ------- null}
h -t 1.386168 -s 0 -d 5 -p tcp -e 1040 -c 1 -i 50 -a 1 -x {0.0 2.0 -1 ------- null}
r -t 1.387548 -s 5 -d 2 -p tcp -e 1040 -c 1 -i 44 -a 1 -x {0.0 2.0 29 ------- null}
h -t 1.387548 -s 2 -d 5 -p ack -e 40 -c 1 -i 62 -a 1 -x {2.0 0.0 29 ------- null}
+ -t 1.38902 -s 2 -d 5 -p ack -e 40 -c 1 -i 61 -a 1 -x {2.0 0.0 28 ------- null}
- -t 1.394696 -s 0 -d 5 -p tcp -e 1040 -c 1 -i 51 -a 1 -x {0.0 2.0 32 ------- null}
h -t 1.394696 -s 0 -d 5 -p tcp -e 1040 -c 1 -i 51 -a 1 -x {0.0 2.0 -1 ------- null}
r -t 1.396076 -s 5 -d 2 -p tcp -e 1040 -c 1 -i 45 -a 1 -x {0.0 2.0 30 ------- null}
h -t 1.396076 -s 2 -d 5 -p ack -e 40 -c 1 -i 63 -a 1 -x {2.0 0.0 30 ------- null}
+ -t 1.397548 -s 2 -d 5 -p ack -e 40 -c 1 -i 62 -a 1 -x {2.0 0.0 29 ------- null}
- -t 1.403836 -s 2 -d 5 -p ack -e 40 -c 1 -i 48 -a 1 -x {2.0 0.0 17 ------- null}
h -t 1.403836 -s 2 -d 5 -p ack -e 40 -c 1 -i 48 -a 1 -x {2.0 0.0 -1 ------- null}
- -t 1.404444 -s 2 -d 5 -p ack -e 40 -c 1 -i 49 -a 1 -x {2.0 0.0 18 ------- null}
h -t 1.404444 -s 2 -d 5 -p ack -e 40 -c 1 -i 49 -a 1 -x {2.0 0.0 -1 ------- null}
r -t 1.404604 -s 5 -d 2 -p tcp -e 1040 -c 1 -i 50 -a 1 -x {0.0 2.0 31 ------- null}
h -t 1.404604 -s 2 -d 5 -p ack -e 40 -c 1 -i 64 -a 1 -x {2.0 0.0 31 ------- null}
- -t 1.405052 -s 2 -d 5 -p ack -e 40 -c 1 -i 52 -a 1 -x {2.0 0.0 19 ------- null}
h -t 1.405052 -s 2 -d 5 -p ack -e 40 -c 1 -i 52 -a 1 -x {2.0 0.0 -1 ------- null}
- -t 1.40566 -s 2 -d 5 -p ack -e 40 -c 1 -i 53 -a 1 -x {2.0 0.0 20 ------- null}
h -t 1.40566 -s 2 -d 5 -p ack -e 40 -c 1 -i 53 -a 1 -x {2.0 0.0 -1 ------- null}
+ -t 1.406076 -s 2 -d 5 -p ack -e 40 -c 1 -i 63 -a 1 -x {2.0 0.0 30 ------- null}
- -t 1.406268 -s 2 -d 5 -p ack -e 40 -c 1 -i 54 -a 1 -x {2.0 0.0 21 ------- null}
h -t 1.406268 -s 2 -d 5 -p ack -e 40 -c 1 -i 54 -a 1 -x {2.0 0.0 -1 ------- null}
- -t 1.406876 -s 2 -d 5 -p ack -e 40 -c 1 -i 55 -a 1 -x {2.0 0.0 22 ------- null}
h -t 1.406876 -s 2 -d 5 -p ack -e 40 -c 1 -i 55 -a 1 -x {2.0 0.0 -1 ------- null}
- -t 1.407484 -s 2 -d 5 -p ack -e 40 -c 1 -i 56 -a 1 -x {2.0 0.0 23 ------- null}
h -t 1.407484 -s 2 -d 5 -p ack -e 40 -c 1 -i 56 -a 1 -x {2.0 0.0 -1 ------- null}
- -t 1.408092 -s 2 -d 5 -p ack -e 40 -c 1 -i 57 -a 1 -x {2.0 0.0 24 ------- null}
h -t 1.408092 -s 2 -d 5 -p ack -e 40 -c 1 -i 57 -a 1 -x {2.0 0.0 -1 ------- null}
- -t 1.4087 -s 2 -d 5 -p ack -e 40 -c 1 -i 58 -a 1 -x {2.0 0.0 25 ------- null}
h -t 1.4087 -s 2 -d 5 -p ack -e 40 -c 1 -i 58 -a 1 -x {2.0 0.0 -1 ------- null}
- -t 1.409308 -s 2 -d 5 -p ack -e 40 -c 1 -i 59 -a 1 -x {2.0 0.0 26 ------- null}
h -t 1.409308 -s 2 -d 5 -p ack -e 40 -c 1 -i 59 -a 1 -x {2.0 0.0 -1 ------- null}
- -t 1.409916 -s 2 -d 5 -p ack -e 40 -c 1 -i 60 -a 1 -x {2.0 0.0 27 ------- null}
h -t 1.409916 -s 2 -d 5 -p ack -e 40 -c 1 -i 60 -a 1 -x {2.0 0.0 -1 ------- null}
- -t 1.410524 -s 2 -d 5 -p ack -e 40 -c 1 -i 61 -a 1 -x {2.0 0.0 28 ------- null}
h -t 1.410524 -s 2 -d 5 -p ack -e 40 -c 1 -i 61 -a 1 -x {2.0 0.0 -1 ------- null}
- -t 1.411132 -s 2 -d 5 -p ack -e 40 -c 1 -i 62 -a 1 -x {2.0 0.0 29 ------- null}
h -t 1.411132 -s 2 -d 5 -p ack -e 40 -c 1 -i 62 -a 1 -x {2.0 0.0 -1 ------- null}
- -t 1.41174 -s 2 -d 5 -p ack -e 40 -c 1 -i 63 -a 1 -x {2.0 0.0 30 ------- null}
h -t 1.41174 -s 2 -d 5 -p ack -e 40 -c 1 -i 63 -a 1 -x {2.0 0.0 -1 ------- null}
r -t 1.413132 -s 5 -d 2 -p tcp -e 1040 -c 1 -i 51 -a 1 -x {0.0 2.0 32 ------- null}
h -t 1.413132 -s 2 -d 5 -p ack -e 40 -c 1 -i 65 -a 1 -x {2.0 0.0 32 ------- null}
r -t 1.413744 -s 5 -d 0 -p ack -e 40 -c 1 -i 47 -a 1 -x {2.0 0.0 16 ------- null}
h -t 1.413744 -s 0 -d 5 -p tcp -e 1040 -c 1 -i 66 -a 1 -x {0.0 2.0 33 ------- null}
h -t 1.413744 -s 0 -d 5 -p tcp -e 1040 -c 1 -i 67 -a 1 -x {0.0 2.0 34 ------- null}
r -t 1.414352 -s 5 -d 0 -p ack -e 40 -c 1 -i 48 -a 1 -x {2.0 0.0 17 ------- null}
h -t 1.414352 -s 0 -d 5 -p tcp -e 1040 -c 1 -i 68 -a 1 -x {0.0 2.0 35 ------- null}
h -t 1.414352 -s 0 -d 5 -p tcp -e 1040 -c 1 -i 69 -a 1 -x {0.0 2.0 36 ------- null}
+ -t 1.414604 -s 2 -d 5 -p ack -e 40 -c 1 -i 64 -a 1 -x {2.0 0.0 31 ------- null}
- -t 1.414604 -s 2 -d 5 -p ack -e 40 -c 1 -i 64 -a 1 -x {2.0 0.0 31 ------- null}
h -t 1.414604 -s 2 -d 5 -p ack -e 40 -c 1 -i 64 -a 1 -x {2.0 0.0 -1 ------- null}
r -t 1.41496 -s 5 -d 0 -p ack -e 40 -c 1 -i 49 -a 1 -x {2.0 0.0 18 ------- null}
h -t 1.41496 -s 0 -d 5 -p tcp -e 1040 -c 1 -i 70 -a 1 -x {0.0 2.0 37 ------- null}
h -t 1.41496 -s 0 -d 5 -p tcp -e 1040 -c 1 -i 71 -a 1 -x {0.0 2.0 38 ------- null}
r -t 1.415568 -s 5 -d 0 -p ack -e 40 -c 1 -i 52 -a 1 -x {2.0 0.0 19 ------- null}
h -t 1.415568 -s 0 -d 5 -p tcp -e 1040 -c 1 -i 72 -a 1 -x {0.0 2.0 39 ------- null}
r -t 1.416176 -s 5 -d 0 -p ack -e 40 -c 1 -i 53 -a 1 -x {2.0 0.0 20 ------- null}
h -t 1.416176 -s 0 -d 5 -p tcp -e 1040 -c 1 -i 73 -a 1 -x {0.0 2.0 40 ------- null}
r -t 1.416784 -s 5 -d 0 -p ack -e 40 -c 1 -i 54 -a 1 -x {2.0 0.0 21 ------- null}
h -t 1.416784 -s 0 -d 5 -p tcp -e 1040 -c 1 -i 74 -a 1 -x {0.0 2.0 41 ------- null}
r -t 1.417392 -s 5 -d 0 -p ack -e 40 -c 1 -i 55 -a 1 -x {2.0 0.0 22 ------- null}
h -t 1.417392 -s 0 -d 5 -p tcp -e 1040 -c 1 -i 75 -a 1 -x {0.0 2.0 42 ------- null}
r -t 1.418 -s 5 -d 0 -p ack -e 40 -c 1 -i 56 -a 1 -x {2.0 0.0 23 ------- null}
h -t 1.418 -s 0 -d 5 -p tcp -e 1040 -c 1 -i 76 -a 1 -x {0.0 2.0 43 ------- null}
r -t 1.418608 -s 5 -d 0 -p ack -e 40 -c 1 -i 57 -a 1 -x {2.0 0.0 24 ------- null}
h -t 1.418608 -s 0 -d 5 -p tcp -e 1040 -c 1 -i 77 -a 1 -x {0.0 2.0 44 ------- null}
r -t 1.419216 -s 5 -d 0 -p ack -e 40 -c 1 -i 58 -a 1 -x {2.0 0.0 25 ------- null}
h -t 1.419216 -s 0 -d 5 -p tcp -e 1040 -c 1 -i 78 -a 1 -x {0.0 2.0 45 ------- null}
r -t 1.419824 -s 5 -d 0 -p ack -e 40 -c 1 -i 59 -a 1 -x {2.0 0.0 26 ------- null}
h -t 1.419824 -s 0 -d 5 -p tcp -e 1040 -c 1 -i 79 -a 1 -x {0.0 2.0 46 ------- null}
r -t 1.420432 -s 5 -d 0 -p ack -e 40 -c 1 -i 60 -a 1 -x {2.0 0.0 27 ------- null}
h -t 1.420432 -s 0 -d 5 -p tcp -e 1040 -c 1 -i 80 -a 1 -x {0.0 2.0 47 ------- null}
r -t 1.42104 -s 5 -d 0 -p ack -e 40 -c 1 -i 61 -a 1 -x {2.0 0.0 28 ------- null}
h -t 1.42104 -s 0 -d 5 -p tcp -e 1040 -c 1 -i 81 -a 1 -x {0.0 2.0 48 ------- null}
r -t 1.421648 -s 5 -d 0 -p ack -e 40 -c 1 -i 62 -a 1 -x {2.0 0.0 29 ------- null}
h -t 1.421648 -s 0 -d 5 -p tcp -e 1040 -c 1 -i 82 -a 1 -x {0.0 2.0 49 ------- null}
r -t 1.422256 -s 5 -d 0 -p ack -e 40 -c 1 -i 63 -a 1 -x {2.0 0.0 30 ------- null}
h -t 1.422256 -s 0 -d 5 -p tcp -e 1040 -c 1 -i 83 -a 1 -x {0.0 2.0 50 ------- null}
+ -t 1.423132 -s 2 -d 5 -p ack -e 40 -c 1 -i 65 -a 1 -x {2.0 0.0 32 ------- null}
- -t 1.423132 -s 2 -d 5 -p ack -e 40 -c 1 -i 65 -a 1 -x {2.0 0.0 32 ------- null}
h -t 1.423132 -s 2 -d 5 -p ack -e 40 -c 1 -i 65 -a 1 -x {2.0 0.0 -1 ------- null}
+ -t 1.423744 -s 0 -d 5 -p tcp -e 1040 -c 1 -i 66 -a 1 -x {0.0 2.0 33 ------- null}
- -t 1.423744 -s 0 -d 5 -p tcp -e 1040 -c 1 -i 66 -a 1 -x {0.0 2.0 33 ------- null}
h -t 1.423744 -s 0 -d 5 -p tcp -e 1040 -c 1 -i 66 -a 1 -x {0.0 2.0 -1 ------- null}
+ -t 1.423744 -s 0 -d 5 -p tcp -e 1040 -c 1 -i 67 -a 1 -x {0.0 2.0 34 ------- null}
+ -t 1.424352 -s 0 -d 5 -p tcp -e 1040 -c 1 -i 68 -a 1 -x {0.0 2.0 35 ------- null}
+ -t 1.424352 -s 0 -d 5 -p tcp -e 1040 -c 1 -i 69 -a 1 -x {0.0 2.0 36 ------- null}
+ -t 1.42496 -s 0 -d 5 -p tcp -e 1040 -c 1 -i 70 -a 1 -x {0.0 2.0 37 ------- null}
+ -t 1.42496 -s 0 -d 5 -p tcp -e 1040 -c 1 -i 71 -a 1 -x {0.0 2.0 38 ------- null}
r -t 1.42512 -s 5 -d 0 -p ack -e 40 -c 1 -i 64 -a 1 -x {2.0 0.0 31 ------- null}
h -t 1.42512 -s 0 -d 5 -p tcp -e 1040 -c 1 -i 84 -a 1 -x {0.0 2.0 51 ------- null}