h 1 0 5 tcp 40 ------- 1 0.0 2.0 0 0
+ 1.01 0 5 tcp 40 ------- 1 0.0 2.0 0 0
- 1.01 0 5 tcp 40 ------- 1 0.0 2.0 0 0
r 1.020516 5 2 tcp 40 ------- 1 0.0 2.0 0 0
h 1.020516 2 5 ack 40 ------- 1 2.0 0.0 0 1
+ 1.030516 2 5 ack 40 ------- 1 2.0 0.0 0 1
- 1.030516 2 5 ack 40 ------- 1 2.0 0.0 0 1
r 1.041032 5 0 ack 40 ------- 1 2.0 0.0 0 1
h 1.041032 0 5 tcp 1040 ------- 1 0.0 2.0 1 2
h 1.041032 0 5 tcp 1040 ------- 1 0.0 2.0 2 3
+ 1.051032 0 5 tcp 1040 ------- 1 0.0 2.0 1 2
- 1.051032 0 5 tcp 1040 ------- 1 0.0 2.0 1 2
+ 1.051032 0 5 tcp 1040 ------- 1 0.0 2.0 2 3
- 1.05956 0 5 tcp 1040 ------- 1 0.0 2.0 2 3
r 1.069468 5 2 tcp 1040 ------- 1 0.0 2.0 1 2
h 1.069468 2 5 ack 40 ------- 1 2.0 0.0 1 4
r 1.077996 5 2 tcp 1040 ------- 1 0.0 2.0 2 3
h 1.077996 2 5 ack 40 ------- 1 2.0 0.0 2 5
+ 1.079468 2 5 ack 40 ------- 1 2.0 0.0 1 4
- 1.079468 2 5 ack 40 ------- 1 2.0 0.0 1 4
+ 1.087996 2 5 ack 40 ------- 1 2.0 0.0 2 5
- 1.087996 2 5 ack 40 ------- 1 2.0 0.0 2 5
r 1.089984 5 0 ack 40 ------- 1 2.0 0.0 1 4
h 1.089984 0 5 tcp 1040 ------- 1 0.0 2.0 3 6
h 1.089984 0 5 tcp 1040 ------- 1 0.0 2.0 4 7
r 1.098512 5 0 ack 40 ------- 1 2.0 0.0 2 5
h 1.098512 0 5 tcp 1040 ------- 1 0.0 2.0 5 8
h 1.098512 0 5 tcp 1040 ------- 1 0.0 2.0 6 9
+ 1.099984 0 5 tcp 1040 ------- 1 0.0 2.0 3 6
- 1.099984 0 5 tcp 1040 ------- 1 0.0 2.0 3 6
+ 1.099984 0 5 tcp 1040 ------- 1 0.0 2.0 4 7
+ 1.108512 0 5 tcp 1040 ------- 1 0.0 2.0 5 8
+ 1.108512 0 5 tcp 1040 ------- 1 0.0 2.0 6 9
- 1.108512 0 5 tcp 1040 ------- 1 0.0 2.0 4 7
- 1.11704 0 5 tcp 1040 ------- 1 0.0 2.0 5 8
r 1.11842 5 2 tcp 1040 ------- 1 0.0 2.0 3 6
h 1.11842 2 5 ack 40 ------- 1 2.0 0.0 3 10
- 1.125568 0 5 tcp 1040 ------- 1 0.0 2.0 6 9
r 1.126948 5 2 tcp 1040 ------- 1 0.0 2.0 4 7
h 1.126948 2 5 ack 40 ------- 1 2.0 0.0 4 11
+ 1.12842 2 5 ack 40 ------- 1 2.0 0.0 3 10
- 1.12842 2 5 ack 40 ------- 1 2.0 0.0 3 10
r 1.135476 5 2 tcp 1040 ------- 1 0.0 2.0 5 8
h 1.135476 2 5 ack 40 ------- 1 2.0 0.0 5 12
+ 1.136948 2 5 ack 40 ------- 1 2.0 0.0 4 11
- 1.136948 2 5 ack 40 ------- 1 2.0 0.0 4 11
r 1.144004 5 2 tcp 1040 ------- 1 0.0 2.0 6 9
h 1.144004 2 5 ack 40 ------- 1 2.0 0.0 6 13
r 1.144616 5 0 ack 40 ------- 1 2.0 0.0 3 10
h 1.144616 0 5 tcp 1040 ------- 1 0.0 2.0 7 14
h 1.144616 0 5 tcp 1040 ------- 1 0.0 2.0 8 15
+ 1.145476 2 5 ack 40 ------- 1 2.0 0.0 5 12
- 1.145476 2 5 ack 40 ------- 1 2.0 0.0 5 12
r 1.147464 5 0 ack 40 ------- 1 2.0 0.0 4 11
h 1.147464 0 5 tcp 1040 ------- 1 0.0 2.0 9 16
h 1.147464 0 5 tcp 1040 ------- 1 0.0 2.0 10 17
+ 1.154004 2 5 ack 40 ------- 1 2.0 0.0 6 13
- 1.154004 2 5 ack 40 ------- 1 2.0 0.0 6 13
+ 1.154616 0 5 tcp 1040 ------- 1 0.0 2.0 7 14
- 1.154616 0 5 tcp 1040 ------- 1 0.0 2.0 7 14
+ 1.154616 0 5 tcp 1040 ------- 1 0.0 2.0 8 15
r 1.155992 5 0 ack 40 ------- 1 2.0 0.0 5 12
h 1.155992 0 5 tcp 1040 ------- 1 0.0 2.0 11 18
h 1.155992 0 5 tcp 1040 ------- 1 0.0 2.0 12 19
+ 1.157464 0 5 tcp 1040 ------- 1 0.0 2.0 9 16
+ 1.157464 0 5 tcp 1040 ------- 1 0.0 2.0 10 17
- 1.163144 0 5 tcp 1040 ------- 1 0.0 2.0 8 15
r 1.16452 5 0 ack 40 ------- 1 2.0 0.0 6 13
h 1.16452 0 5 tcp 1040 ------- 1 0.0 2.0 13 20
h 1.16452 0 5 tcp 1040 ------- 1 0.0 2.0 14 21
+ 1.165992 0 5 tcp 1040 ------- 1 0.0 2.0 11 18
+ 1.165992 0 5 tcp 1040 ------- 1 0.0 2.0 12 19
- 1.171672 0 5 tcp 1040 ------- 1 0.0 2.0 9 16
r 1.173052 5 2 tcp 1040 ------- 1 0.0 2.0 7 14
h 1.173052 2 5 ack 40 ------- 1 2.0 0.0 7 22
+ 1.17452 0 5 tcp 1040 ------- 1 0.0 2.0 13 20
+ 1.17452 0 5 tcp 1040 ------- 1 0.0 2.0 14 21
- 1.1802 0 5 tcp 1040 ------- 1 0.0 2.0 10 17
r 1.18158 5 2 tcp 1040 ------- 1 0.0 2.0 8 15
h 1.18158 2 5 ack 40 ------- 1 2.0 0.0 8 23
+ 1.183052 2 5 ack 40 ------- 1 2.0 0.0 7 22
- 1.183052 2 5 ack 40 ------- 1 2.0 0.0 7 22
- 1.188728 0 5 tcp 1040 ------- 1 0.0 2.0 11 18
r 1.190108 5 2 tcp 1040 ------- 1 0.0 2.0 9 16
h 1.190108 2 5 ack 40 ------- 1 2.0 0.0 9 24
+ 1.19158 2 5 ack 40 ------- 1 2.0 0.0 8 23
- 1.197392 0 5 tcp 1040 ------- 1 0.0 2.0 12 19
r 1.198636 5 2 tcp 1040 ------- 1 0.0 2.0 10 17
h 1.198636 2 5 ack 40 ------- 1 2.0 0.0 10 25
+ 1.200108 2 5 ack 40 ------- 1 2.0 0.0 9 24
- 1.206568 0 5 tcp 1040 ------- 1 0.0 2.0 13 20
r 1.2073 5 2 tcp 1040 ------- 1 0.0 2.0 11 18
h 1.2073 2 5 ack 40 ------- 1 2.0 0.0 11 26
+ 1.208636 2 5 ack 40 ------- 1 2.0 0.0 10 25
- 1.215232 0 5 tcp 1040 ------- 1 0.0 2.0 14 21
r 1.216476 5 2 tcp 1040 ------- 1 0.0 2.0 12 19
h 1.216476 2 5 ack 40 ------- 1 2.0 0.0 12 27
+ 1.2173 2 5 ack 40 ------- 1 2.0 0.0 11 26
- 1.22502 2 5 ack 40 ------- 1 2.0 0.0 8 23
r 1.22514 5 2 tcp 1040 ------- 1 0.0 2.0 13 20
h 1.22514 2 5 ack 40 ------- 1 2.0 0.0 13 28
- 1.225628 2 5 ack 40 ------- 1 2.0 0.0 9 24
- 1.226236 2 5 ack 40 ------- 1 2.0 0.0 10 25
+ 1.226476 2 5 ack 40 ------- 1 2.0 0.0 12 27
- 1.226844 2 5 ack 40 ------- 1 2.0 0.0 11 26
- 1.227452 2 5 ack 40 ------- 1 2.0 0.0 12 27
r 1.234316 5 2 tcp 1040 ------- 1 0.0 2.0 14 21
h 1.234316 2 5 ack 40 ------- 1 2.0 0.0 14 29
r 1.234928 5 0 ack 40 ------- 1 2.0 0.0 7 22
h 1.234928 0 5 tcp 1040 ------- 1 0.0 2.0 15 30
h 1.234928 0 5 tcp 1040 ------- 1 0.0 2.0 16 31
+ 1.23514 2 5 ack 40 ------- 1 2.0 0.0 13 28
- 1.23514 2 5 ack 40 ------- 1 2.0 0.0 13 28
r 1.235536 5 0 ack 40 ------- 1 2.0 0.0 8 23
h 1.235536 0 5 tcp 1040 ------- 1 0.0 2.0 17 32
h 1.235536 0 5 tcp 1040 ------- 1 0.0 2.0 18 33
r 1.236144 5 0 ack 40 ------- 1 2.0 0.0 9 24
h 1.236144 0 5 tcp 1040 ------- 1 0.0 2.0 19 34
h 1.236144 0 5 tcp 1040 ------- 1 0.0 2.0 20 35
r 1.236752 5 0 ack 40 ------- 1 2.0 0.0 10 25
h 1.236752 0 5 tcp 1040 ------- 1 0.0 2.0 21 36
h 1.236752 0 5 tcp 1040 ------- 1 0.0 2.0 22 37
r 1.23736 5 0 ack 40 ------- 1 2.0 0.0 11 26
h 1.23736 0 5 tcp 1040 ------- 1 0.0 2.0 23 38
h 1.23736 0 5 tcp 1040 ------- 1 0.0 2.0 24 39
r 1.237968 5 0 ack 40 ------- 1 2.0 0.0 12 27
h 1.237968 0 5 tcp 1040 ------- 1 0.0 2.0 25 40
h 1.237968 0 5 tcp 1040 ------- 1 0.0 2.0 26 41
+ 1.244316 2 5 ack 40 ------- 1 2.0 0.0 14 29
- 1.244316 2 5 ack 40 ------- 1 2.0 0.0 14 29
+ 1.244928 0 5 tcp 1040 ------- 1 0.0 2.0 15 30
- 1.244928 0 5 tcp 1040 ------- 1 0.0 2.0 15 30
+ 1.244928 0 5 tcp 1040 ------- 1 0.0 2.0 16 31
+ 1.245536 0 5 tcp 1040 ------- 1 0.0 2.0 17 32
+ 1.245536 0 5 tcp 1040 ------- 1 0.0 2.0 18 33
r 1.245656 5 0 ack 40 ------- 1 2.0 0.0 13 28
h 1.245656 0 5 tcp 1040 ------- 1 0.0 2.0 27 42
h 1.245656 0 5 tcp 1040 ------- 1 0.0 2.0 28 43
+ 1.246144 0 5 tcp 1040 ------- 1 0.0 2.0 19 34
+ 1.246144 0 5 tcp 1040 ------- 1 0.0 2.0 20 35
+ 1.246752 0 5 tcp 1040 ------- 1 0.0 2.0 21 36
+ 1.246752 0 5 tcp 1040 ------- 1 0.0 2.0 22 37
+ 1.24736 0 5 tcp 1040 ------- 1 0.0 2.0 23 38
+ 1.24736 0 5 tcp 1040 ------- 1 0.0 2.0 24 39
+ 1.247968 0 5 tcp 1040 ------- 1 0.0 2.0 25 40
+ 1.247968 0 5 tcp 1040 ------- 1 0.0 2.0 26 41
- 1.253456 0 5 tcp 1040 ------- 1 0.0 2.0 16 31
r 1.254832 5 0 ack 40 ------- 1 2.0 0.0 14 29
h 1.254832 0 5 tcp 1040 ------- 1 0.0 2.0 29 44
h 1.254832 0 5 tcp 1040 ------- 1 0.0 2.0 30 45
+ 1.255656 0 5 tcp 1040 ------- 1 0.0 2.0 27 42
+ 1.255656 0 5 tcp 1040 ------- 1 0.0 2.0 28 43
- 1.261984 0 5 tcp 1040 ------- 1 0.0 2.0 17 32
r 1.263364 5 2 tcp 1040 ------- 1 0.0 2.0 15 30
h 1.263364 2 5 ack 40 ------- 1 2.0 0.0 15 46
+ 1.264832 0 5 tcp 1040 ------- 1 0.0 2.0 29 44
+ 1.264832 0 5 tcp 1040 ------- 1 0.0 2.0 30 45
- 1.270512 0 5 tcp 1040 ------- 1 0.0 2.0 18 33
r 1.271892 5 2 tcp 1040 ------- 1 0.0 2.0 16 31
h 1.271892 2 5 ack 40 ------- 1 2.0 0.0 16 47
+ 1.273364 2 5 ack 40 ------- 1 2.0 0.0 15 46
- 1.273364 2 5 ack 40 ------- 1 2.0 0.0 15 46
- 1.27904 0 5 tcp 1040 ------- 1 0.0 2.0 19 34
r 1.28042 5 2 tcp 1040 ------- 1 0.0 2.0 17 32
h 1.28042 2 5 ack 40 ------- 1 2.0 0.0 17 48
+ 1.281892 2 5 ack 40 ------- 1 2.0 0.0 16 47
- 1.281892 2 5 ack 40 ------- 1 2.0 0.0 16 47
r 1.288948 5 2 tcp 1040 ------- 1 0.0 2.0 18 33
h 1.288948 2 5 ack 40 ------- 1 2.0 0.0 18 49
- 1.289368 0 5 tcp 1040 ------- 1 0.0 2.0 20 35
r 1.289824 5 0 ack 40 ------- 1 2.0 0.0 15 46
h 1.289824 0 5 tcp 1040 ------- 1 0.0 2.0 31 50
h 1.289824 0 5 tcp 1040 ------- 1 0.0 2.0 32 51
+ 1.29042 2 5 ack 40 ------- 1 2.0 0.0 17 48
- 1.298672 0 5 tcp 1040 ------- 1 0.0 2.0 21 36
+ 1.298948 2 5 ack 40 ------- 1 2.0 0.0 18 49
r 1.299276 5 2 tcp 1040 ------- 1 0.0 2.0 19 34
h 1.299276 2 5 ack 40 ------- 1 2.0 0.0 19 52
+ 1.299824 0 5 tcp 1040 ------- 1 0.0 2.0 31 50
+ 1.299824 0 5 tcp 1040 ------- 1 0.0 2.0 32 51
- 1.307848 0 5 tcp 1040 ------- 1 0.0 2.0 22 37
r 1.30858 5 2 tcp 1040 ------- 1 0.0 2.0 20 35
h 1.30858 2 5 ack 40 ------- 1 2.0 0.0 20 53
+ 1.309276 2 5 ack 40 ------- 1 2.0 0.0 19 52
- 1.316512 0 5 tcp 1040 ------- 1 0.0 2.0 23 38
r 1.317756 5 2 tcp 1040 ------- 1 0.0 2.0 21 36
h 1.317756 2 5 ack 40 ------- 1 2.0 0.0 21 54
+ 1.31858 2 5 ack 40 ------- 1 2.0 0.0 20 53
- 1.325688 0 5 tcp 1040 ------- 1 0.0 2.0 24 39
r 1.32642 5 2 tcp 1040 ------- 1 0.0 2.0 22 37
h 1.32642 2 5 ack 40 ------- 1 2.0 0.0 22 55
+ 1.327756 2 5 ack 40 ------- 1 2.0 0.0 21 54
- 1.334864 0 5 tcp 1040 ------- 1 0.0 2.0 25 40
r 1.335596 5 2 tcp 1040 ------- 1 0.0 2.0 23 38
h 1.335596 2 5 ack 40 ------- 1 2.0 0.0 23 56
+ 1.33642 2 5 ack 40 ------- 1 2.0 0.0 22 55
- 1.343392 0 5 tcp 1040 ------- 1 0.0 2.0 26 41
r 1.344772 5 2 tcp 1040 ------- 1 0.0 2.0 24 39
h 1.344772 2 5 ack 40 ------- 1 2.0 0.0 24 57
+ 1.345596 2 5 ack 40 ------- 1 2.0 0.0 23 56
- 1.352056 0 5 tcp 1040 ------- 1 0.0 2.0 27 42
r 1.3533 5 2 tcp 1040 ------- 1 0.0 2.0 25 40
h 1.3533 2 5 ack 40 ------- 1 2.0 0.0 25 58
+ 1.354772 2 5 ack 40 ------- 1 2.0 0.0 24 57
- 1.360584 0 5 tcp 1040 ------- 1 0.0 2.0 28 43
r 1.361964 5 2 tcp 1040 ------- 1 0.0 2.0 26 41
h 1.361964 2 5 ack 40 ------- 1 2.0 0.0 26 59
+ 1.3633 2 5 ack 40 ------- 1 2.0 0.0 25 58
- 1.369112 0 5 tcp 1040 ------- 1 0.0 2.0 29 44
r 1.370492 5 2 tcp 1040 ------- 1 0.0 2.0 27 42
h 1.370492 2 5 ack 40 ------- 1 2.0 0.0 27 60
+ 1.371964 2 5 ack 40 ------- 1 2.0 0.0 26 59
- 1.37764 0 5 tcp 1040 ------- 1 0.0 2.0 30 45
r 1.37902 5 2 tcp 1040 ------- 1 0.0 2.0 28 43
h 1.37902 2 5 ack 40 ------- 1 2.0 0.0 28 61
+ 1.380492 2 5 ack 40 ------- 1 2.0 0.0 27 60
- 1.386168 0 5 tcp 1040 ------- 1 0.0 2.0 31 50
r 1.387548 5 2 tcp 1040 ------- 1 0.0 2.0 29 44
h 1.387548 2 5 ack 40 ------- 1 2.0 0.0 29 62
+ 1.38902 2 5 ack 40 ------- 1 2.0 0.0 28 61
- 1.394696 0 5 tcp 1040 ------- 1 0.0 2.0 32 51
r 1.396076 5 2 tcp 1040 ------- 1 0.0 2.0 30 45
h 1.396076 2 5 ack 40 ------- 1 2.0 0.0 30 63
+ 1.397548 2 5 ack 40 ------- 1 2.0 0.0 29 62
- 1.403836 2 5 ack 40 ------- 1 2.0 0.0 17 48
- 1.404444 2 5 ack 40 ------- 1 2.0 0.0 18 49
r 1.404604 5 2 tcp 1040 ------- 1 0.0 2.0 31 50
h 1.404604 2 5 ack 40 ------- 1 2.0 0.0 31 64
- 1.405052 2 5 ack 40 ------- 1 2.0 0.0 19 52
- 1.40566 2 5 ack 40 ------- 1 2.0 0.0 20 53
+ 1.406076 2 5 ack 40 ------- 1 2.0 0.0 30 63
- 1.406268 2 5 ack 40 ------- 1 2.0 0.0 21 54
- 1.406876 2 5 ack 40 ------- 1 2.0 0.0 22 55
- 1.407484 2 5 ack 40 ------- 1 2.0 0.0 23 56
- 1.408092 2 5 ack 40 ------- 1 2.0 0.0 24 57
- 1.4087 2 5 ack 40 ------- 1 2.0 0.0 25 58
- 1.409308 2 5 ack 40 ------- 1 2.0 0.0 26 59
- 1.409916 2 5 ack 40 ------- 1 2.0 0.0 27 60
- 1.410524 2 5 ack 40 ------- 1 2.0 0.0 28 61
- 1.411132 2 5 ack 40 ------- 1 2.0 0.0 29 62
- 1.41174 2 5 ack 40 ------- 1 2.0 0.0 30 63
r 1.413132 5 2 tcp 1040 ------- 1 0.0 2.0 32 51
h 1.413132 2 5 ack 40 ------- 1 2.0 0.0 32 65
r 1.413744 5 0 ack 40 ------- 1 2.0 0.0 16 47
h 1.413744 0 5 tcp 1040 ------- 1 0.0 2.0 33 66
h 1.413744 0 5 tcp 1040 ------- 1 0.0 2.0 34 67
r 1.414352 5 0 ack 40 ------- 1 2.0 0.0 17 48
h 1.414352 0 5 tcp 1040 ------- 1 0.0 2.0 35 68
h 1.414352 0 5 tcp 1040 ------- 1 0.0 2.0 36 69
+ 1.414604 2 5 ack 40 ------- 1 2.0 0.0 31 64
- 1.414604 2 5 ack 40 ------- 1 2.0 0.0 31 64
r 1.41496 5 0 ack 40 ------- 1 2.0 0.0 18 49
h 1.41496 0 5 tcp 1040 ------- 1 0.0 2.0 37 70
h 1.41496 0 5 tcp 1040 ------- 1 0.0 2.0 38 71
r 1.415568 5 0 ack 40 ------- 1 2.0 0.0 19 52
h 1.415568 0 5 tcp 1040 ------- 1 0.0 2.0 39 72
r 1.416176 5 0 ack 40 ------- 1 2.0 0.0 20 53
h 1.416176 0 5 tcp 1040 ------- 1 0.0 2.0 40 73
r 1.416784 5 0 ack 40 ------- 1 2.0 0.0 21 54
h 1.416784 0 5 tcp 1040 ------- 1 0.0 2.0 41 74
r 1.417392 5 0 ack 40 ------- 1 2.0 0.0 22 55
h 1.417392 0 5 tcp 1040 ------- 1 0.0 2.0 42 75
r 1.418 5 0 ack 40 ------- 1 2.0 0.0 23 56
h 1.418 0 5 tcp 1040 ------- 1 0.0 2.0 43 76
r 1.418608 5 0 ack 40 ------- 1 2.0 0.0 24 57
h 1.418608 0 5 tcp 1040 ------- 1 0.0 2.0 44 77
r 1.419216 5 0 ack 40 ------- 1 2.0 0.0 25 58
h 1.419216 0 5 tcp 1040 ------- 1 0.0 2.0 45 78
r 1.419824 5 0 ack 40 ------- 1 2.0 0.0 26 59
h 1.419824 0 5 tcp 1040 ------- 1 0.0 2.0 46 79
r 1.420432 5 0 ack 40 ------- 1 2.0 0.0 27 60
h 1.420432 0 5 tcp 1040 ------- 1 0.0 2.0 47 80
r 1.42104 5 0 ack 40 ------- 1 2.0 0.0 28 61
h 1.42104 0 5 tcp 1040 ------- 1 0.0 2.0 48 81
r 1.421648 5 0 ack 40 ------- 1 2.0 0.0 29 62
h 1.421648 0 5 tcp 1040 ------- 1 0.0 2.0 49 82
r 1.422256 5 0 ack 40 ------- 1 2.0 0.0 30 63
h 1.422256 0 5 tcp 1040 ------- 1 0.0 2.0 50 83
+ 1.423132 2 5 ack 40 ------- 1 2.0 0.0 32 65
- 1.423132 2 5 ack 40 ------- 1 2.0 0.0 32 65
+ 1.423744 0 5 tcp 1040 ------- 1 0.0 2.0 33 66
- 1.423744 0 5 tcp 1040 ------- 1 0.0 2.0 33 66
+ 1.423744 0 5 tcp 1040 ------- 1 0.0 2.0 34 67
+ 1.424352 0 5 tcp 1040 ------- 1 0.0 2.0 35 68
+ 1.424352 0 5 tcp 1040 ------- 1 0.0 2.0 36 69
+ 1.42496 0 5 tcp 1040 ------- 1 0.0 2.0 37 70
+ 1.42496 0 5 tcp 1040 ------- 1 0.0 2.0 38 71
r 1.42512 5 0 ack 40 ------- 1 2.0 0.0 31 64
h 1.42512 0 5 tcp 1040 ------- 1 0.0 2.0 51 84
+ 1.425568 0 5 tcp 1040 ------- 1 0.0 2.0 39 72
+ 1.426176 0 5 tcp 1040 ------- 1 0.0 2.0 40 73
+ 1.426784 0 5 tcp 1040 ------- 1 0.0 2.0 41 74
+ 1.427392 0 5 tcp 1040 ------- 1 0.0 2.0 42 75
+ 1.428 0 5 tcp 1040 ------- 1 0.0 2.0 43 76
+ 1.428608 0 5 tcp 1040 ------- 1 0.0 2.0 44 77
+ 1.429216 0 5 tcp 1040 ------- 1 0.0 2.0 45 78
+ 1.429824 0 5 tcp 1040 ------- 1 0.0 2.0 46 79
+ 1.430432 0 5 tcp 1040 ------- 1 0.0 2.0 47 80
+ 1.43104 0 5 tcp 1040 ------- 1 0.0 2.0 48 81
+ 1.431648 0 5 tcp 1040 ------- 1 0.0 2.0 49 82
+ 1.432256 0 5 tcp 1040 ------- 1 0.0 2.0 50 83
- 1.432272 0 5 tcp 1040 ------- 1 0.0 2.0 34 67
r 1.433648 5 0 ack 40 ------- 1 2.0 0.0 32 65
h 1.433648 0 5 tcp 1040 ------- 1 0.0 2.0 52 85
+ 1.43512 0 5 tcp 1040 ------- 1 0.0 2.0 51 84
- 1.4408 0 5 tcp 1040 ------- 1 0.0 2.0 35 68
r 1.44218 5 2 tcp 1040 ------- 1 0.0 2.0 33 66
h 1.44218 2 5 ack 40 ------- 1 2.0 0.0 33 86
+ 1.443648 0 5 tcp 1040 ------- 1 0.0 2.0 52 85
- 1.449328 0 5 tcp 1040 ------- 1 0.0 2.0 36 69
r 1.450708 5 2 tcp 1040 ------- 1 0.0 2.0 34 67
h 1.450708 2 5 ack 40 ------- 1 2.0 0.0 34 87
+ 1.45218 2 5 ack 40 ------- 1 2.0 0.0 33 86
- 1.45218 2 5 ack 40 ------- 1 2.0 0.0 33 86
- 1.457856 0 5 tcp 1040 ------- 1 0.0 2.0 37 70
r 1.459236 5 2 tcp 1040 ------- 1 0.0 2.0 35 68
h 1.459236 2 5 ack 40 ------- 1 2.0 0.0 35 88
+ 1.460708 2 5 ack 40 ------- 1 2.0 0.0 34 87
- 1.460708 2 5 ack 40 ------- 1 2.0 0.0 34 87
r 1.467764 5 2 tcp 1040 ------- 1 0.0 2.0 36 69
h 1.467764 2 5 ack 40 ------- 1 2.0 0.0 36 89
- 1.468696 0 5 tcp 1040 ------- 1 0.0 2.0 38 71
+ 1.469236 2 5 ack 40 ------- 1 2.0 0.0 35 88
r 1.469664 5 0 ack 40 ------- 1 2.0 0.0 33 86
h 1.469664 0 5 tcp 1040 ------- 1 0.0 2.0 53 90
+ 1.477764 2 5 ack 40 ------- 1 2.0 0.0 36 89
- 1.478 0 5 tcp 1040 ------- 1 0.0 2.0 39 72
r 1.478604 5 2 tcp 1040 ------- 1 0.0 2.0 37 70
h 1.478604 2 5 ack 40 ------- 1 2.0 0.0 37 91
- 1.47874 2 5 ack 40 ------- 1 2.0 0.0 35 88
+ 1.479664 0 5 tcp 1040 ------- 1 0.0 2.0 53 90
- 1.481148 2 5 ack 40 ------- 1 2.0 0.0 36 89
r 1.487908 5 2 tcp 1040 ------- 1 0.0 2.0 38 71
h 1.487908 2 5 ack 40 ------- 1 2.0 0.0 38 92
+ 1.488604 2 5 ack 40 ------- 1 2.0 0.0 37 91
- 1.488604 2 5 ack 40 ------- 1 2.0 0.0 37 91
r 1.488648 5 0 ack 40 ------- 1 2.0 0.0 34 87
h 1.488648 0 5 tcp 1040 ------- 1 0.0 2.0 54 93
r 1.491056 5 0 ack 40 ------- 1 2.0 0.0 35 88
h 1.491056 0 5 tcp 1040 ------- 1 0.0 2.0 55 94
- 1.491632 0 5 tcp 1040 ------- 1 0.0 2.0 40 73
r 1.491664 5 0 ack 40 ------- 1 2.0 0.0 36 89
h 1.491664 0 5 tcp 1040 ------- 1 0.0 2.0 56 95
+ 1.497908 2 5 ack 40 ------- 1 2.0 0.0 38 92
+ 1.498648 0 5 tcp 1040 ------- 1 0.0 2.0 54 93
+ 1.501056 0 5 tcp 1040 ------- 1 0.0 2.0 55 94
r 1.50154 5 2 tcp 1040 ------- 1 0.0 2.0 39 72
h 1.50154 2 5 ack 40 ------- 1 2.0 0.0 39 96
+ 1.501664 0 5 tcp 1040 ------- 1 0.0 2.0 56 95
- 1.50312 0 5 tcp 1040 ------- 1 0.0 2.0 41 74
- 1.505532 2 5 ack 40 ------- 1 2.0 0.0 38 92
+ 1.51154 2 5 ack 40 ------- 1 2.0 0.0 39 96
- 1.51154 2 5 ack 40 ------- 1 2.0 0.0 39 96
r 1.513028 5 2 tcp 1040 ------- 1 0.0 2.0 40 73
h 1.513028 2 5 ack 40 ------- 1 2.0 0.0 40 97
r 1.51544 5 0 ack 40 ------- 1 2.0 0.0 37 91
h 1.51544 0 5 tcp 1040 ------- 1 0.0 2.0 57 98
r 1.516696 5 0 ack 40 ------- 1 2.0 0.0 38 92
h 1.516696 0 5 tcp 1040 ------- 1 0.0 2.0 58 99
- 1.517264 0 5 tcp 1040 ------- 1 0.0 2.0 42 75
+ 1.523028 2 5 ack 40 ------- 1 2.0 0.0 40 97
+ 1.52544 0 5 tcp 1040 ------- 1 0.0 2.0 57 98
- 1.526568 0 5 tcp 1040 ------- 1 0.0 2.0 43 76
+ 1.526696 0 5 tcp 1040 ------- 1 0.0 2.0 58 99
r 1.527172 5 2 tcp 1040 ------- 1 0.0 2.0 41 74
h 1.527172 2 5 ack 40 ------- 1 2.0 0.0 41 100
- 1.535232 0 5 tcp 1040 ------- 1 0.0 2.0 44 77
r 1.536476 5 2 tcp 1040 ------- 1 0.0 2.0 42 75
h 1.536476 2 5 ack 40 ------- 1 2.0 0.0 42 101
+ 1.537172 2 5 ack 40 ------- 1 2.0 0.0 41 100
- 1.544408 0 5 tcp 1040 ------- 1 0.0 2.0 45 78
r 1.54514 5 2 tcp 1040 ------- 1 0.0 2.0 43 76
h 1.54514 2 5 ack 40 ------- 1 2.0 0.0 43 102
+ 1.546476 2 5 ack 40 ------- 1 2.0 0.0 42 101
- 1.553072 0 5 tcp 1040 ------- 1 0.0 2.0 46 79
r 1.554316 5 2 tcp 1040 ------- 1 0.0 2.0 44 77
h 1.554316 2 5 ack 40 ------- 1 2.0 0.0 44 103
+ 1.55514 2 5 ack 40 ------- 1 2.0 0.0 43 102
- 1.5616 0 5 tcp 1040 ------- 1 0.0 2.0 47 80
r 1.56298 5 2 tcp 1040 ------- 1 0.0 2.0 45 78
h 1.56298 2 5 ack 40 ------- 1 2.0 0.0 45 104
+ 1.564316 2 5 ack 40 ------- 1 2.0 0.0 44 103
- 1.570776 0 5 tcp 1040 ------- 1 0.0 2.0 48 81
r 1.571508 5 2 tcp 1040 ------- 1 0.0 2.0 46 79
h 1.571508 2 5 ack 40 ------- 1 2.0 0.0 46 105
+ 1.57298 2 5 ack 40 ------- 1 2.0 0.0 45 104
- 1.579304 0 5 tcp 1040 ------- 1 0.0 2.0 49 82
r 1.580684 5 2 tcp 1040 ------- 1 0.0 2.0 47 80
h 1.580684 2 5 ack 40 ------- 1 2.0 0.0 47 106
+ 1.581508 2 5 ack 40 ------- 1 2.0 0.0 46 105
- 1.587968 0 5 tcp 1040 ------- 1 0.0 2.0 50 83
r 1.589212 5 2 tcp 1040 ------- 1 0.0 2.0 48 81
h 1.589212 2 5 ack 40 ------- 1 2.0 0.0 48 107
+ 1.590684 2 5 ack 40 ------- 1 2.0 0.0 47 106
- 1.596496 0 5 tcp 1040 ------- 1 0.0 2.0 51 84
r 1.597876 5 2 tcp 1040 ------- 1 0.0 2.0 49 82
h 1.597876 2 5 ack 40 ------- 1 2.0 0.0 49 108
+ 1.599212 2 5 ack 40 ------- 1 2.0 0.0 48 107
- 1.605024 0 5 tcp 1040 ------- 1 0.0 2.0 52 85
r 1.606404 5 2 tcp 1040 ------- 1 0.0 2.0 50 83
h 1.606404 2 5 ack 40 ------- 1 2.0 0.0 50 109
+ 1.607876 2 5 ack 40 ------- 1 2.0 0.0 49 108
- 1.613552 0 5 tcp 1040 ------- 1 0.0 2.0 53 90
r 1.614932 5 2 tcp 1040 ------- 1 0.0 2.0 51 84
h 1.614932 2 5 ack 40 ------- 1 2.0 0.0 51 110
+ 1.616404 2 5 ack 40 ------- 1 2.0 0.0 50 109
- 1.62208 0 5 tcp 1040 ------- 1 0.0 2.0 54 93
r 1.62346 5 2 tcp 1040 ------- 1 0.0 2.0 52 85
h 1.62346 2 5 ack 40 ------- 1 2.0 0.0 52 111
+ 1.624932 2 5 ack 40 ------- 1 2.0 0.0 51 110
- 1.630608 0 5 tcp 1040 ------- 1 0.0 2.0 55 94
r 1.631988 5 2 tcp 1040 ------- 1 0.0 2.0 53 90
h 1.631988 2 5 ack 40 ------- 1 2.0 0.0 53 112
+ 1.63346 2 5 ack 40 ------- 1 2.0 0.0 52 111
- 1.639136 0 5 tcp 1040 ------- 1 0.0 2.0 56 95
r 1.640516 5 2 tcp 1040 ------- 1 0.0 2.0 54 93
h 1.640516 2 5 ack 40 ------- 1 2.0 0.0 54 113
+ 1.641988 2 5 ack 40 ------- 1 2.0 0.0 53 112
- 1.647664 0 5 tcp 1040 ------- 1 0.0 2.0 57 98
r 1.649044 5 2 tcp 1040 ------- 1 0.0 2.0 55 94
h 1.649044 2 5 ack 40 ------- 1 2.0 0.0 55 114
+ 1.650516 2 5 ack 40 ------- 1 2.0 0.0 54 113
- 1.656328 0 5 tcp 1040 ------- 1 0.0 2.0 58 99
r 1.657572 5 2 tcp 1040 ------- 1 0.0 2.0 56 95
h 1.657572 2 5 ack 40 ------- 1 2.0 0.0 56 115
+ 1.659044 2 5 ack 40 ------- 1 2.0 0.0 55 114
r 1.666236 5 2 tcp 1040 ------- 1 0.0 2.0 57 98
h 1.666236 2 5 ack 40 ------- 1 2.0 0.0 57 116
+ 1.667572 2 5 ack 40 ------- 1 2.0 0.0 56 115
r 1.6749 5 2 tcp 1040 ------- 1 0.0 2.0 58 99
h 1.6749 2 5 ack 40 ------- 1 2.0 0.0 58 117
+ 1.676236 2 5 ack 40 ------- 1 2.0 0.0 57 116
+ 1.6849 2 5 ack 40 ------- 1 2.0 0.0 58 117
h 1.746696 0 5 tcp 1040 ---A--- 1 0.0 2.0 39 118
+ 1.756696 0 5 tcp 1040 ---A--- 1 0.0 2.0 39 118
- 1.756696 0 5 tcp 1040 ---A--- 1 0.0 2.0 39 118
r 1.775132 5 2 tcp 1040 ---A--- 1 0.0 2.0 39 118
h 1.775132 2 5 ack 40 ------- 1 2.0 0.0 58 119
+ 1.785132 2 5 ack 40 ------- 1 2.0 0.0 58 119
- 1.904364 2 5 ack 40 ------- 1 2.0 0.0 40 97
- 1.904972 2 5 ack 40 ------- 1 2.0 0.0 41 100
- 1.90558 2 5 ack 40 ------- 1 2.0 0.0 42 101
- 1.906188 2 5 ack 40 ------- 1 2.0 0.0 43 102
- 1.906796 2 5 ack 40 ------- 1 2.0 0.0 44 103
- 1.907404 2 5 ack 40 ------- 1 2.0 0.0 45 104
- 1.908012 2 5 ack 40 ------- 1 2.0 0.0 46 105
- 1.90862 2 5 ack 40 ------- 1 2.0 0.0 47 106
- 1.909228 2 5 ack 40 ------- 1 2.0 0.0 48 107
- 1.909836 2 5 ack 40 ------- 1 2.0 0.0 49 108
- 1.910444 2 5 ack 40 ------- 1 2.0 0.0 50 109
- 1.911052 2 5 ack 40 ------- 1 2.0 0.0 51 110
- 1.91166 2 5 ack 40 ------- 1 2.0 0.0 52 111
- 1.912268 2 5 ack 40 ------- 1 2.0 0.0 53 112
- 1.912876 2 5 ack 40 ------- 1 2.0 0.0 54 113
- 1.913484 2 5 ack 40 ------- 1 2.0 0.0 55 114
- 1.914092 2 5 ack 40 ------- 1 2.0 0.0 56 115
r 1.914272 5 0 ack 40 ------- 1 2.0 0.0 39 96
h 1.914272 0 5 tcp 1040 ------- 1 0.0 2.0 40 120
h 1.914272 0 5 tcp 1040 ------- 1 0.0 2.0 41 121
- 1.9147 2 5 ack 40 ------- 1 2.0 0.0 57 116
r 1.91488 5 0 ack 40 ------- 1 2.0 0.0 40 97
h 1.91488 0 5 tcp 1040 ------- 1 0.0 2.0 42 122
h 1.91488 0 5 tcp 1040 ------- 1 0.0 2.0 43 123
- 1.915308 2 5 ack 40 ------- 1 2.0 0.0 58 117
r 1.915488 5 0 ack 40 ------- 1 2.0 0.0 41 100
h 1.915488 0 5 tcp 1040 ------- 1 0.0 2.0 44 124
h 1.915488 0 5 tcp 1040 ------- 1 0.0 2.0 45 125
- 1.915916 2 5 ack 40 ------- 1 2.0 0.0 58 119
r 1.916096 5 0 ack 40 ------- 1 2.0 0.0 42 101
h 1.916096 0 5 tcp 1040 ------- 1 0.0 2.0 46 126
h 1.916096 0 5 tcp 1040 ------- 1 0.0 2.0 47 127
r 1.916704 5 0 ack 40 ------- 1 2.0 0.0 43 102
h 1.916704 0 5 tcp 1040 ------- 1 0.0 2.0 48 128
h 1.916704 0 5 tcp 1040 ------- 1 0.0 2.0 49 129
r 1.917312 5 0 ack 40 ------- 1 2.0 0.0 44 103
h 1.917312 0 5 tcp 1040 ------- 1 0.0 2.0 50 130
h 1.917312 0 5 tcp 1040 ------- 1 0.0 2.0 51 131
r 1.91792 5 0 ack 40 ------- 1 2.0 0.0 45 104
h 1.91792 0 5 tcp 1040 ------- 1 0.0 2.0 52 132
h 1.91792 0 5 tcp 1040 ------- 1 0.0 2.0 53 133
r 1.918528 5 0 ack 40 ------- 1 2.0 0.0 46 105
h 1.918528 0 5 tcp 1040 ------- 1 0.0 2.0 54 134
h 1.918528 0 5 tcp 1040 ------- 1 0.0 2.0 55 135
r 1.919136 5 0 ack 40 ------- 1 2.0 0.0 47 106
h 1.919136 0 5 tcp 1040 ------- 1 0.0 2.0 56 136
h 1.919136 0 5 tcp 1040 ------- 1 0.0 2.0 57 137
r 1.919744 5 0 ack 40 ------- 1 2.0 0.0 48 107
h 1.919744 0 5 tcp 1040 ------- 1 0.0 2.0 58 138
r 1.920352 5 0 ack 40 ------- 1 2.0 0.0 49 108
h 1.920352 0 5 tcp 1040 ------- 1 0.0 2.0 59 139
r 1.92096 5 0 ack 40 ------- 1 2.0 0.0 50 109
h 1.92096 0 5 tcp 1040 ------- 1 0.0 2.0 60 140
r 1.921568 5 0 ack 40 ------- 1 2.0 0.0 51 110
h 1.921568 0 5 tcp 1040 ------- 1 0.0 2.0 61 141
r 1.922176 5 0 ack 40 ------- 1 2.0 0.0 52 111
h 1.922176 0 5 tcp 1040 ------- 1 0.0 2.0 62 142
r 1.922784 5 0 ack 40 ------- 1 2.0 0.0 53 112
h 1.922784 0 5 tcp 1040 ------- 1 0.0 2.0 63 143
r 1.923392 5 0 ack 40 ------- 1 2.0 0.0 54 113
h 1.923392 0 5 tcp 1040 ------- 1 0.0 2.0 64 144
r 1.924 5 0 ack 40 ------- 1 2.0 0.0 55 114
h 1.924 0 5 tcp 1040 ------- 1 0.0 2.0 65 145
+ 1.924272 0 5 tcp 1040 ------- 1 0.0 2.0 40 120
- 1.924272 0 5 tcp 1040 ------- 1 0.0 2.0 40 120
+ 1.924272 0 5 tcp 1040 ------- 1 0.0 2.0 41 121
r 1.924608 5 0 ack 40 ------- 1 2.0 0.0 56 115
h 1.924608 0 5 tcp 1040 ------- 1 0.0 2.0 66 146
+ 1.92488 0 5 tcp 1040 ------- 1 0.0 2.0 42 122
+ 1.92488 0 5 tcp 1040 ------- 1 0.0 2.0 43 123
r 1.925216 5 0 ack 40 ------- 1 2.0 0.0 57 116
h 1.925216 0 5 tcp 1040 ------- 1 0.0 2.0 67 147
+ 1.925488 0 5 tcp 1040 ------- 1 0.0 2.0 44 124
+ 1.925488 0 5 tcp 1040 ------- 1 0.0 2.0 45 125
r 1.925824 5 0 ack 40 ------- 1 2.0 0.0 58 117
h 1.925824 0 5 tcp 1040 ------- 1 0.0 2.0 68 148
h 1.925824 0 5 tcp 1040 ------- 1 0.0 2.0 69 149
+ 1.926096 0 5 tcp 1040 ------- 1 0.0 2.0 46 126
+ 1.926096 0 5 tcp 1040 ------- 1 0.0 2.0 47 127
r 1.926432 5 0 ack 40 ------- 1 2.0 0.0 58 119
h 1.926432 0 5 tcp 1040 ------- 1 0.0 2.0 70 150
+ 1.926704 0 5 tcp 1040 ------- 1 0.0 2.0 48 128
+ 1.926704 0 5 tcp 1040 ------- 1 0.0 2.0 49 129
+ 1.927312 0 5 tcp 1040 ------- 1 0.0 2.0 50 130
+ 1.927312 0 5 tcp 1040 ------- 1 0.0 2.0 51 131
+ 1.92792 0 5 tcp 1040 ------- 1 0.0 2.0 52 132
+ 1.92792 0 5 tcp 1040 ------- 1 0.0 2.0 53 133
+ 1.928528 0 5 tcp 1040 ------- 1 0.0 2.0 54 134
+ 1.928528 0 5 tcp 1040 ------- 1 0.0 2.0 55 135
+ 1.929136 0 5 tcp 1040 ------- 1 0.0 2.0 56 136
+ 1.929136 0 5 tcp 1040 ------- 1 0.0 2.0 57 137
+ 1.929744 0 5 tcp 1040 ------- 1 0.0 2.0 58 138
+ 1.930352 0 5 tcp 1040 ------- 1 0.0 2.0 59 139
+ 1.93096 0 5 tcp 1040 ------- 1 0.0 2.0 60 140
+ 1.931568 0 5 tcp 1040 ------- 1 0.0 2.0 61 141
+ 1.932176 0 5 tcp 1040 ------- 1 0.0 2.0 62 142
+ 1.932784 0 5 tcp 1040 ------- 1 0.0 2.0 63 143
- 1.9328 0 5 tcp 1040 ------- 1 0.0 2.0 41 121
+ 1.933392 0 5 tcp 1040 ------- 1 0.0 2.0 64 144
+ 1.934 0 5 tcp 1040 ------- 1 0.0 2.0 65 145
+ 1.934608 0 5 tcp 1040 ------- 1 0.0 2.0 66 146
+ 1.935216 0 5 tcp 1040 ------- 1 0.0 2.0 67 147
+ 1.935824 0 5 tcp 1040 ------- 1 0.0 2.0 68 148
+ 1.935824 0 5 tcp 1040 ------- 1 0.0 2.0 69 149
+ 1.936432 0 5 tcp 1040 ------- 1 0.0 2.0 70 150
- 1.941328 0 5 tcp 1040 ------- 1 0.0 2.0 42 122
r 1.942708 5 2 tcp 1040 ------- 1 0.0 2.0 40 120
h 1.942708 2 5 ack 40 ------- 1 2.0 0.0 58 151
- 1.949856 0 5 tcp 1040 ------- 1 0.0 2.0 43 123
r 1.951236 5 2 tcp 1040 ------- 1 0.0 2.0 41 121
h 1.951236 2 5 ack 40 ------- 1 2.0 0.0 58 152
+ 1.952708 2 5 ack 40 ------- 1 2.0 0.0 58 151
- 1.952708 2 5 ack 40 ------- 1 2.0 0.0 58 151
- 1.958384 0 5 tcp 1040 ------- 1 0.0 2.0 44 124
r 1.959764 5 2 tcp 1040 ------- 1 0.0 2.0 42 122
h 1.959764 2 5 ack 40 ------- 1 2.0 0.0 58 153
+ 1.961236 2 5 ack 40 ------- 1 2.0 0.0 58 152
- 1.961236 2 5 ack 40 ------- 1 2.0 0.0 58 152
- 1.967656 0 5 tcp 1040 ------- 1 0.0 2.0 45 125
r 1.968292 5 2 tcp 1040 ------- 1 0.0 2.0 43 123
h 1.968292 2 5 ack 40 ------- 1 2.0 0.0 58 154
r 1.969032 5 0 ack 40 ------- 1 2.0 0.0 58 151
h 1.969032 0 5 tcp 1040 ------- 1 0.0 2.0 71 155
+ 1.969764 2 5 ack 40 ------- 1 2.0 0.0 58 153
- 1.969764 2 5 ack 40 ------- 1 2.0 0.0 58 153
r 1.977564 5 2 tcp 1040 ------- 1 0.0 2.0 44 124
h 1.977564 2 5 ack 40 ------- 1 2.0 0.0 58 156
- 1.977984 0 5 tcp 1040 ------- 1 0.0 2.0 46 126
+ 1.978292 2 5 ack 40 ------- 1 2.0 0.0 58 154
- 1.978724 2 5 ack 40 ------- 1 2.0 0.0 58 154
r 1.978952 5 0 ack 40 ------- 1 2.0 0.0 58 152
+ 1.979032 0 5 tcp 1040 ------- 1 0.0 2.0 71 155
+ 1.987564 2 5 ack 40 ------- 1 2.0 0.0 58 156
- 1.987564 2 5 ack 40 ------- 1 2.0 0.0 58 156
r 1.987892 5 2 tcp 1040 ------- 1 0.0 2.0 45 125
h 1.987892 2 5 ack 40 ------- 1 2.0 0.0 58 157
- 1.988 0 5 tcp 1040 ------- 1 0.0 2.0 47 127
r 1.988632 5 0 ack 40 ------- 1 2.0 0.0 58 153
r 1.989376 5 0 ack 40 ------- 1 2.0 0.0 58 154
+ 1.997892 2 5 ack 40 ------- 1 2.0 0.0 58 157
- 1.997892 2 5 ack 40 ------- 1 2.0 0.0 58 157
r 1.997908 5 2 tcp 1040 ------- 1 0.0 2.0 46 126
h 1.997908 2 5 ack 40 ------- 1 2.0 0.0 58 158
r 2.001984 5 0 ack 40 ------- 1 2.0 0.0 58 156
- 2.002048 0 5 tcp 1040 ------- 1 0.0 2.0 48 128
+ 2.007908 2 5 ack 40 ------- 1 2.0 0.0 58 158
- 2.007908 2 5 ack 40 ------- 1 2.0 0.0 58 158
r 2.011956 5 2 tcp 1040 ------- 1 0.0 2.0 47 127
h 2.011956 2 5 ack 40 ------- 1 2.0 0.0 58 159
- 2.01248 0 5 tcp 1040 ------- 1 0.0 2.0 49 129
r 2.013856 5 0 ack 40 ------- 1 2.0 0.0 58 157
- 2.021144 0 5 tcp 1040 ------- 1 0.0 2.0 50 130
+ 2.021956 2 5 ack 40 ------- 1 2.0 0.0 58 159
r 2.022388 5 2 tcp 1040 ------- 1 0.0 2.0 48 128
h 2.022388 2 5 ack 40 ------- 1 2.0 0.0 58 160
- 2.029808 0 5 tcp 1040 ------- 1 0.0 2.0 51 131
r 2.031052 5 2 tcp 1040 ------- 1 0.0 2.0 49 129
h 2.031052 2 5 ack 40 ------- 1 2.0 0.0 58 161
+ 2.032388 2 5 ack 40 ------- 1 2.0 0.0 58 160
- 2.038472 0 5 tcp 1040 ------- 1 0.0 2.0 52 132
r 2.039716 5 2 tcp 1040 ------- 1 0.0 2.0 50 130
h 2.039716 2 5 ack 40 ------- 1 2.0 0.0 58 162
+ 2.041052 2 5 ack 40 ------- 1 2.0 0.0 58 161
- 2.047648 0 5 tcp 1040 ------- 1 0.0 2.0 53 133
r 2.04838 5 2 tcp 1040 ------- 1 0.0 2.0 51 131
h 2.04838 2 5 ack 40 ------- 1 2.0 0.0 58 163
+ 2.049716 2 5 ack 40 ------- 1 2.0 0.0 58 162
- 2.056824 0 5 tcp 1040 ------- 1 0.0 2.0 54 134
r 2.057556 5 2 tcp 1040 ------- 1 0.0 2.0 52 132
h 2.057556 2 5 ack 40 ------- 1 2.0 0.0 58 164
+ 2.05838 2 5 ack 40 ------- 1 2.0 0.0 58 163
- 2.066 0 5 tcp 1040 ------- 1 0.0 2.0 55 135
r 2.066732 5 2 tcp 1040 ------- 1 0.0 2.0 53 133
h 2.066732 2 5 ack 40 ------- 1 2.0 0.0 58 165
+ 2.067556 2 5 ack 40 ------- 1 2.0 0.0 58 164
- 2.074528 0 5 tcp 1040 ------- 1 0.0 2.0 56 136
r 2.075908 5 2 tcp 1040 ------- 1 0.0 2.0 54 134
h 2.075908 2 5 ack 40 ------- 1 2.0 0.0 58 166
+ 2.076732 2 5 ack 40 ------- 1 2.0 0.0 58 165
- 2.083704 0 5 tcp 1040 ------- 1 0.0 2.0 57 137
r 2.084436 5 2 tcp 1040 ------- 1 0.0 2.0 55 135
h 2.084436 2 5 ack 40 ------- 1 2.0 0.0 58 167
+ 2.085908 2 5 ack 40 ------- 1 2.0 0.0 58 166
- 2.092232 0 5 tcp 1040 ------- 1 0.0 2.0 58 138
r 2.093612 5 2 tcp 1040 ------- 1 0.0 2.0 56 136
h 2.093612 2 5 ack 40 ------- 1 2.0 0.0 58 168
+ 2.094436 2 5 ack 40 ------- 1 2.0 0.0 58 167
- 2.10076 0 5 tcp 1040 ------- 1 0.0 2.0 59 139
r 2.10214 5 2 tcp 1040 ------- 1 0.0 2.0 57 137
h 2.10214 2 5 ack 40 ------- 1 2.0 0.0 58 169
+ 2.103612 2 5 ack 40 ------- 1 2.0 0.0 58 168
- 2.109288 0 5 tcp 1040 ------- 1 0.0 2.0 60 140
r 2.110668 5 2 tcp 1040 ------- 1 0.0 2.0 58 138
h 2.110668 2 5 ack 40 ------- 1 2.0 0.0 58 170
+ 2.11214 2 5 ack 40 ------- 1 2.0 0.0 58 169
- 2.117816 0 5 tcp 1040 ------- 1 0.0 2.0 61 141
r 2.119196 5 2 tcp 1040 ------- 1 0.0 2.0 59 139
h 2.119196 2 5 ack 40 ------- 1 2.0 0.0 59 171
+ 2.120668 2 5 ack 40 ------- 1 2.0 0.0 58 170