+ 0.1 0 1 cbr 100 ------- 1 0.0 2.0 0 0
- 0.1 0 1 cbr 100 ------- 1 0.0 2.0 0 0
+ 0.11 0 1 cbr 100 ------- 1 0.0 2.0 1 1
- 0.11 0 1 cbr 100 ------- 1 0.0 2.0 1 1
r 0.1108 0 1 cbr 100 ------- 1 0.0 2.0 0 0
+ 0.1108 1 2 cbr 100 ------- 1 0.0 2.0 0 0
- 0.1108 1 2 cbr 100 ------- 1 0.0 2.0 0 0
+ 0.12 0 1 cbr 100 ------- 1 0.0 2.0 2 2
- 0.12 0 1 cbr 100 ------- 1 0.0 2.0 2 2
r 0.1208 0 1 cbr 100 ------- 1 0.0 2.0 1 1
+ 0.1208 1 2 cbr 100 ------- 1 0.0 2.0 1 1
- 0.1208 1 2 cbr 100 ------- 1 0.0 2.0 1 1
r 0.122133 1 2 cbr 100 ------- 1 0.0 2.0 0 0
+ 0.13 0 1 cbr 100 ------- 1 0.0 2.0 3 3
- 0.13 0 1 cbr 100 ------- 1 0.0 2.0 3 3
r 0.1308 0 1 cbr 100 ------- 1 0.0 2.0 2 2
+ 0.1308 1 2 cbr 100 ------- 1 0.0 2.0 2 2
- 0.1308 1 2 cbr 100 ------- 1 0.0 2.0 2 2
r 0.132133 1 2 cbr 100 ------- 1 0.0 2.0 1 1
+ 0.14 0 1 cbr 100 ------- 1 0.0 2.0 4 4
- 0.14 0 1 cbr 100 ------- 1 0.0 2.0 4 4
r 0.1408 0 1 cbr 100 ------- 1 0.0 2.0 3 3
+ 0.1408 1 2 cbr 100 ------- 1 0.0 2.0 3 3
- 0.1408 1 2 cbr 100 ------- 1 0.0 2.0 3 3
r 0.142133 1 2 cbr 100 ------- 1 0.0 2.0 2 2
+ 0.15 0 1 cbr 100 ------- 1 0.0 2.0 5 5
- 0.15 0 1 cbr 100 ------- 1 0.0 2.0 5 5
r 0.1508 0 1 cbr 100 ------- 1 0.0 2.0 4 4
+ 0.1508 1 2 cbr 100 ------- 1 0.0 2.0 4 4
- 0.1508 1 2 cbr 100 ------- 1 0.0 2.0 4 4
r 0.152133 1 2 cbr 100 ------- 1 0.0 2.0 3 3
+ 0.16 0 1 cbr 100 ------- 1 0.0 2.0 6 6
- 0.16 0 1 cbr 100 ------- 1 0.0 2.0 6 6
r 0.1608 0 1 cbr 100 ------- 1 0.0 2.0 5 5
+ 0.1608 1 2 cbr 100 ------- 1 0.0 2.0 5 5
- 0.1608 1 2 cbr 100 ------- 1 0.0 2.0 5 5
r 0.162133 1 2 cbr 100 ------- 1 0.0 2.0 4 4
+ 0.17 0 1 cbr 100 ------- 1 0.0 2.0 7 7
- 0.17 0 1 cbr 100 ------- 1 0.0 2.0 7 7
r 0.1708 0 1 cbr 100 ------- 1 0.0 2.0 6 6
+ 0.1708 1 2 cbr 100 ------- 1 0.0 2.0 6 6
- 0.1708 1 2 cbr 100 ------- 1 0.0 2.0 6 6
r 0.172133 1 2 cbr 100 ------- 1 0.0 2.0 5 5
+ 0.18 0 1 cbr 100 ------- 1 0.0 2.0 8 8
- 0.18 0 1 cbr 100 ------- 1 0.0 2.0 8 8
r 0.1808 0 1 cbr 100 ------- 1 0.0 2.0 7 7
+ 0.1808 1 2 cbr 100 ------- 1 0.0 2.0 7 7
- 0.1808 1 2 cbr 100 ------- 1 0.0 2.0 7 7
r 0.182133 1 2 cbr 100 ------- 1 0.0 2.0 6 6
+ 0.19 0 1 cbr 100 ------- 1 0.0 2.0 9 9
- 0.19 0 1 cbr 100 ------- 1 0.0 2.0 9 9
r 0.1908 0 1 cbr 100 ------- 1 0.0 2.0 8 8
+ 0.1908 1 2 cbr 100 ------- 1 0.0 2.0 8 8
- 0.1908 1 2 cbr 100 ------- 1 0.0 2.0 8 8
r 0.192133 1 2 cbr 100 ------- 1 0.0 2.0 7 7
+ 0.2 0 1 cbr 100 ------- 1 0.0 2.0 10 10
- 0.2 0 1 cbr 100 ------- 1 0.0 2.0 10 10
r 0.2008 0 1 cbr 100 ------- 1 0.0 2.0 9 9
+ 0.2008 1 2 cbr 100 ------- 1 0.0 2.0 9 9
- 0.2008 1 2 cbr 100 ------- 1 0.0 2.0 9 9
r 0.202133 1 2 cbr 100 ------- 1 0.0 2.0 8 8
+ 0.21 0 1 cbr 100 ------- 1 0.0 2.0 11 11
- 0.21 0 1 cbr 100 ------- 1 0.0 2.0 11 11
r 0.2108 0 1 cbr 100 ------- 1 0.0 2.0 10 10
+ 0.2108 1 2 cbr 100 ------- 1 0.0 2.0 10 10
- 0.2108 1 2 cbr 100 ------- 1 0.0 2.0 10 10
r 0.212133 1 2 cbr 100 ------- 1 0.0 2.0 9 9
+ 0.22 0 1 cbr 100 ------- 1 0.0 2.0 12 12
- 0.22 0 1 cbr 100 ------- 1 0.0 2.0 12 12
r 0.2208 0 1 cbr 100 ------- 1 0.0 2.0 11 11
+ 0.2208 1 2 cbr 100 ------- 1 0.0 2.0 11 11
- 0.2208 1 2 cbr 100 ------- 1 0.0 2.0 11 11
r 0.222133 1 2 cbr 100 ------- 1 0.0 2.0 10 10
+ 0.23 0 1 cbr 100 ------- 1 0.0 2.0 13 13
- 0.23 0 1 cbr 100 ------- 1 0.0 2.0 13 13
r 0.2308 0 1 cbr 100 ------- 1 0.0 2.0 12 12
+ 0.2308 1 2 cbr 100 ------- 1 0.0 2.0 12 12
- 0.2308 1 2 cbr 100 ------- 1 0.0 2.0 12 12
r 0.232133 1 2 cbr 100 ------- 1 0.0 2.0 11 11
+ 0.24 0 1 cbr 100 ------- 1 0.0 2.0 14 14
- 0.24 0 1 cbr 100 ------- 1 0.0 2.0 14 14
r 0.2408 0 1 cbr 100 ------- 1 0.0 2.0 13 13
+ 0.2408 1 2 cbr 100 ------- 1 0.0 2.0 13 13
- 0.2408 1 2 cbr 100 ------- 1 0.0 2.0 13 13
r 0.242133 1 2 cbr 100 ------- 1 0.0 2.0 12 12
+ 0.25 0 1 cbr 100 ------- 1 0.0 2.0 15 15
- 0.25 0 1 cbr 100 ------- 1 0.0 2.0 15 15
r 0.2508 0 1 cbr 100 ------- 1 0.0 2.0 14 14
+ 0.2508 1 2 cbr 100 ------- 1 0.0 2.0 14 14
- 0.2508 1 2 cbr 100 ------- 1 0.0 2.0 14 14
r 0.252133 1 2 cbr 100 ------- 1 0.0 2.0 13 13
+ 0.26 0 1 cbr 100 ------- 1 0.0 2.0 16 16
- 0.26 0 1 cbr 100 ------- 1 0.0 2.0 16 16
r 0.2608 0 1 cbr 100 ------- 1 0.0 2.0 15 15
+ 0.2608 1 2 cbr 100 ------- 1 0.0 2.0 15 15
- 0.2608 1 2 cbr 100 ------- 1 0.0 2.0 15 15
r 0.262133 1 2 cbr 100 ------- 1 0.0 2.0 14 14
+ 0.27 0 1 cbr 100 ------- 1 0.0 2.0 17 17
- 0.27 0 1 cbr 100 ------- 1 0.0 2.0 17 17
r 0.2708 0 1 cbr 100 ------- 1 0.0 2.0 16 16
+ 0.2708 1 2 cbr 100 ------- 1 0.0 2.0 16 16
- 0.2708 1 2 cbr 100 ------- 1 0.0 2.0 16 16
r 0.272133 1 2 cbr 100 ------- 1 0.0 2.0 15 15
+ 0.28 0 1 cbr 100 ------- 1 0.0 2.0 18 18
- 0.28 0 1 cbr 100 ------- 1 0.0 2.0 18 18
r 0.2808 0 1 cbr 100 ------- 1 0.0 2.0 17 17
+ 0.2808 1 2 cbr 100 ------- 1 0.0 2.0 17 17
- 0.2808 1 2 cbr 100 ------- 1 0.0 2.0 17 17
r 0.282133 1 2 cbr 100 ------- 1 0.0 2.0 16 16
+ 0.29 0 1 cbr 100 ------- 1 0.0 2.0 19 19
- 0.29 0 1 cbr 100 ------- 1 0.0 2.0 19 19
r 0.2908 0 1 cbr 100 ------- 1 0.0 2.0 18 18
+ 0.2908 1 2 cbr 100 ------- 1 0.0 2.0 18 18
- 0.2908 1 2 cbr 100 ------- 1 0.0 2.0 18 18
r 0.292133 1 2 cbr 100 ------- 1 0.0 2.0 17 17
+ 0.3 0 1 cbr 100 ------- 1 0.0 2.0 20 20
- 0.3 0 1 cbr 100 ------- 1 0.0 2.0 20 20
r 0.3008 0 1 cbr 100 ------- 1 0.0 2.0 19 19
+ 0.3008 1 2 cbr 100 ------- 1 0.0 2.0 19 19
- 0.3008 1 2 cbr 100 ------- 1 0.0 2.0 19 19
r 0.302133 1 2 cbr 100 ------- 1 0.0 2.0 18 18
+ 0.31 0 1 cbr 100 ------- 1 0.0 2.0 21 21
- 0.31 0 1 cbr 100 ------- 1 0.0 2.0 21 21
r 0.3108 0 1 cbr 100 ------- 1 0.0 2.0 20 20
+ 0.3108 1 2 cbr 100 ------- 1 0.0 2.0 20 20
- 0.3108 1 2 cbr 100 ------- 1 0.0 2.0 20 20
r 0.312133 1 2 cbr 100 ------- 1 0.0 2.0 19 19
+ 0.32 0 1 cbr 100 ------- 1 0.0 2.0 22 22
- 0.32 0 1 cbr 100 ------- 1 0.0 2.0 22 22
r 0.3208 0 1 cbr 100 ------- 1 0.0 2.0 21 21
+ 0.3208 1 2 cbr 100 ------- 1 0.0 2.0 21 21
- 0.3208 1 2 cbr 100 ------- 1 0.0 2.0 21 21
r 0.322133 1 2 cbr 100 ------- 1 0.0 2.0 20 20
+ 0.33 0 1 cbr 100 ------- 1 0.0 2.0 23 23
- 0.33 0 1 cbr 100 ------- 1 0.0 2.0 23 23
r 0.3308 0 1 cbr 100 ------- 1 0.0 2.0 22 22
+ 0.3308 1 2 cbr 100 ------- 1 0.0 2.0 22 22
- 0.3308 1 2 cbr 100 ------- 1 0.0 2.0 22 22
r 0.332133 1 2 cbr 100 ------- 1 0.0 2.0 21 21
+ 0.34 0 1 cbr 100 ------- 1 0.0 2.0 24 24
- 0.34 0 1 cbr 100 ------- 1 0.0 2.0 24 24
r 0.3408 0 1 cbr 100 ------- 1 0.0 2.0 23 23
+ 0.3408 1 2 cbr 100 ------- 1 0.0 2.0 23 23
- 0.3408 1 2 cbr 100 ------- 1 0.0 2.0 23 23
r 0.342133 1 2 cbr 100 ------- 1 0.0 2.0 22 22
+ 0.35 0 1 cbr 100 ------- 1 0.0 2.0 25 25
- 0.35 0 1 cbr 100 ------- 1 0.0 2.0 25 25
r 0.3508 0 1 cbr 100 ------- 1 0.0 2.0 24 24
+ 0.3508 1 2 cbr 100 ------- 1 0.0 2.0 24 24
- 0.3508 1 2 cbr 100 ------- 1 0.0 2.0 24 24
r 0.352133 1 2 cbr 100 ------- 1 0.0 2.0 23 23
+ 0.36 0 1 cbr 100 ------- 1 0.0 2.0 26 26
- 0.36 0 1 cbr 100 ------- 1 0.0 2.0 26 26
r 0.3608 0 1 cbr 100 ------- 1 0.0 2.0 25 25
+ 0.3608 1 2 cbr 100 ------- 1 0.0 2.0 25 25
- 0.3608 1 2 cbr 100 ------- 1 0.0 2.0 25 25
r 0.362133 1 2 cbr 100 ------- 1 0.0 2.0 24 24
+ 0.37 0 1 cbr 100 ------- 1 0.0 2.0 27 27
- 0.37 0 1 cbr 100 ------- 1 0.0 2.0 27 27
r 0.3708 0 1 cbr 100 ------- 1 0.0 2.0 26 26
+ 0.3708 1 2 cbr 100 ------- 1 0.0 2.0 26 26
- 0.3708 1 2 cbr 100 ------- 1 0.0 2.0 26 26
r 0.372133 1 2 cbr 100 ------- 1 0.0 2.0 25 25
+ 0.38 0 1 cbr 100 ------- 1 0.0 2.0 28 28
- 0.38 0 1 cbr 100 ------- 1 0.0 2.0 28 28
r 0.3808 0 1 cbr 100 ------- 1 0.0 2.0 27 27
+ 0.3808 1 2 cbr 100 ------- 1 0.0 2.0 27 27
- 0.3808 1 2 cbr 100 ------- 1 0.0 2.0 27 27
r 0.382133 1 2 cbr 100 ------- 1 0.0 2.0 26 26
+ 0.39 0 1 cbr 100 ------- 1 0.0 2.0 29 29
- 0.39 0 1 cbr 100 ------- 1 0.0 2.0 29 29
r 0.3908 0 1 cbr 100 ------- 1 0.0 2.0 28 28
+ 0.3908 1 2 cbr 100 ------- 1 0.0 2.0 28 28
- 0.3908 1 2 cbr 100 ------- 1 0.0 2.0 28 28
r 0.392133 1 2 cbr 100 ------- 1 0.0 2.0 27 27
+ 0.4 0 1 cbr 100 ------- 1 0.0 2.0 30 30
- 0.4 0 1 cbr 100 ------- 1 0.0 2.0 30 30
r 0.4008 0 1 cbr 100 ------- 1 0.0 2.0 29 29
+ 0.4008 1 2 cbr 100 ------- 1 0.0 2.0 29 29
- 0.4008 1 2 cbr 100 ------- 1 0.0 2.0 29 29
r 0.402133 1 2 cbr 100 ------- 1 0.0 2.0 28 28
+ 0.41 0 1 cbr 100 ------- 1 0.0 2.0 31 31
- 0.41 0 1 cbr 100 ------- 1 0.0 2.0 31 31
r 0.4108 0 1 cbr 100 ------- 1 0.0 2.0 30 30
+ 0.4108 1 2 cbr 100 ------- 1 0.0 2.0 30 30
- 0.4108 1 2 cbr 100 ------- 1 0.0 2.0 30 30
r 0.412133 1 2 cbr 100 ------- 1 0.0 2.0 29 29
+ 0.42 0 1 cbr 100 ------- 1 0.0 2.0 32 32
- 0.42 0 1 cbr 100 ------- 1 0.0 2.0 32 32
r 0.4208 0 1 cbr 100 ------- 1 0.0 2.0 31 31
+ 0.4208 1 2 cbr 100 ------- 1 0.0 2.0 31 31
- 0.4208 1 2 cbr 100 ------- 1 0.0 2.0 31 31
r 0.422133 1 2 cbr 100 ------- 1 0.0 2.0 30 30
+ 0.43 0 1 cbr 100 ------- 1 0.0 2.0 33 33
- 0.43 0 1 cbr 100 ------- 1 0.0 2.0 33 33
r 0.4308 0 1 cbr 100 ------- 1 0.0 2.0 32 32
+ 0.4308 1 2 cbr 100 ------- 1 0.0 2.0 32 32
- 0.4308 1 2 cbr 100 ------- 1 0.0 2.0 32 32
r 0.432133 1 2 cbr 100 ------- 1 0.0 2.0 31 31
+ 0.44 0 1 cbr 100 ------- 1 0.0 2.0 34 34
- 0.44 0 1 cbr 100 ------- 1 0.0 2.0 34 34
r 0.4408 0 1 cbr 100 ------- 1 0.0 2.0 33 33
+ 0.4408 1 2 cbr 100 ------- 1 0.0 2.0 33 33
- 0.4408 1 2 cbr 100 ------- 1 0.0 2.0 33 33
r 0.442133 1 2 cbr 100 ------- 1 0.0 2.0 32 32
+ 0.45 0 1 cbr 100 ------- 1 0.0 2.0 35 35
- 0.45 0 1 cbr 100 ------- 1 0.0 2.0 35 35
r 0.4508 0 1 cbr 100 ------- 1 0.0 2.0 34 34
+ 0.4508 1 2 cbr 100 ------- 1 0.0 2.0 34 34
- 0.4508 1 2 cbr 100 ------- 1 0.0 2.0 34 34
r 0.452133 1 2 cbr 100 ------- 1 0.0 2.0 33 33
+ 0.46 0 1 cbr 100 ------- 1 0.0 2.0 36 36
- 0.46 0 1 cbr 100 ------- 1 0.0 2.0 36 36
r 0.4608 0 1 cbr 100 ------- 1 0.0 2.0 35 35
+ 0.4608 1 2 cbr 100 ------- 1 0.0 2.0 35 35
- 0.4608 1 2 cbr 100 ------- 1 0.0 2.0 35 35
r 0.462133 1 2 cbr 100 ------- 1 0.0 2.0 34 34
+ 0.47 0 1 cbr 100 ------- 1 0.0 2.0 37 37
- 0.47 0 1 cbr 100 ------- 1 0.0 2.0 37 37
r 0.4708 0 1 cbr 100 ------- 1 0.0 2.0 36 36
+ 0.4708 1 2 cbr 100 ------- 1 0.0 2.0 36 36
- 0.4708 1 2 cbr 100 ------- 1 0.0 2.0 36 36
r 0.472133 1 2 cbr 100 ------- 1 0.0 2.0 35 35
+ 0.48 0 1 cbr 100 ------- 1 0.0 2.0 38 38
- 0.48 0 1 cbr 100 ------- 1 0.0 2.0 38 38
r 0.4808 0 1 cbr 100 ------- 1 0.0 2.0 37 37
+ 0.4808 1 2 cbr 100 ------- 1 0.0 2.0 37 37
- 0.4808 1 2 cbr 100 ------- 1 0.0 2.0 37 37
r 0.482133 1 2 cbr 100 ------- 1 0.0 2.0 36 36
+ 0.49 0 1 cbr 100 ------- 1 0.0 2.0 39 39
- 0.49 0 1 cbr 100 ------- 1 0.0 2.0 39 39
r 0.4908 0 1 cbr 100 ------- 1 0.0 2.0 38 38
+ 0.4908 1 2 cbr 100 ------- 1 0.0 2.0 38 38
- 0.4908 1 2 cbr 100 ------- 1 0.0 2.0 38 38
r 0.492133 1 2 cbr 100 ------- 1 0.0 2.0 37 37
+ 0.5 0 1 cbr 100 ------- 1 0.0 2.0 40 40
- 0.5 0 1 cbr 100 ------- 1 0.0 2.0 40 40
r 0.5008 0 1 cbr 100 ------- 1 0.0 2.0 39 39
+ 0.5008 1 2 cbr 100 ------- 1 0.0 2.0 39 39
- 0.5008 1 2 cbr 100 ------- 1 0.0 2.0 39 39
r 0.502133 1 2 cbr 100 ------- 1 0.0 2.0 38 38
+ 0.51 0 1 cbr 100 ------- 1 0.0 2.0 41 41
- 0.51 0 1 cbr 100 ------- 1 0.0 2.0 41 41
r 0.5108 0 1 cbr 100 ------- 1 0.0 2.0 40 40
+ 0.5108 1 2 cbr 100 ------- 1 0.0 2.0 40 40
- 0.5108 1 2 cbr 100 ------- 1 0.0 2.0 40 40
r 0.512133 1 2 cbr 100 ------- 1 0.0 2.0 39 39
+ 0.52 0 1 cbr 100 ------- 1 0.0 2.0 42 42
- 0.52 0 1 cbr 100 ------- 1 0.0 2.0 42 42
r 0.5208 0 1 cbr 100 ------- 1 0.0 2.0 41 41
+ 0.5208 1 2 cbr 100 ------- 1 0.0 2.0 41 41
- 0.5208 1 2 cbr 100 ------- 1 0.0 2.0 41 41
r 0.522133 1 2 cbr 100 ------- 1 0.0 2.0 40 40
+ 0.53 0 1 cbr 100 ------- 1 0.0 2.0 43 43
- 0.53 0 1 cbr 100 ------- 1 0.0 2.0 43 43
r 0.5308 0 1 cbr 100 ------- 1 0.0 2.0 42 42
+ 0.5308 1 2 cbr 100 ------- 1 0.0 2.0 42 42
- 0.5308 1 2 cbr 100 ------- 1 0.0 2.0 42 42
r 0.532133 1 2 cbr 100 ------- 1 0.0 2.0 41 41
+ 0.54 0 1 cbr 100 ------- 1 0.0 2.0 44 44
- 0.54 0 1 cbr 100 ------- 1 0.0 2.0 44 44
r 0.5408 0 1 cbr 100 ------- 1 0.0 2.0 43 43
+ 0.5408 1 2 cbr 100 ------- 1 0.0 2.0 43 43
- 0.5408 1 2 cbr 100 ------- 1 0.0 2.0 43 43
r 0.542133 1 2 cbr 100 ------- 1 0.0 2.0 42 42
+ 0.55 0 1 cbr 100 ------- 1 0.0 2.0 45 45
- 0.55 0 1 cbr 100 ------- 1 0.0 2.0 45 45
r 0.5508 0 1 cbr 100 ------- 1 0.0 2.0 44 44
+ 0.5508 1 2 cbr 100 ------- 1 0.0 2.0 44 44
- 0.5508 1 2 cbr 100 ------- 1 0.0 2.0 44 44
r 0.552133 1 2 cbr 100 ------- 1 0.0 2.0 43 43
+ 0.56 0 1 cbr 100 ------- 1 0.0 2.0 46 46
- 0.56 0 1 cbr 100 ------- 1 0.0 2.0 46 46
r 0.5608 0 1 cbr 100 ------- 1 0.0 2.0 45 45
+ 0.5608 1 2 cbr 100 ------- 1 0.0 2.0 45 45
- 0.5608 1 2 cbr 100 ------- 1 0.0 2.0 45 45
r 0.562133 1 2 cbr 100 ------- 1 0.0 2.0 44 44
+ 0.57 0 1 cbr 100 ------- 1 0.0 2.0 47 47
- 0.57 0 1 cbr 100 ------- 1 0.0 2.0 47 47
r 0.5708 0 1 cbr 100 ------- 1 0.0 2.0 46 46
+ 0.5708 1 2 cbr 100 ------- 1 0.0 2.0 46 46
- 0.5708 1 2 cbr 100 ------- 1 0.0 2.0 46 46
r 0.572133 1 2 cbr 100 ------- 1 0.0 2.0 45 45
+ 0.58 0 1 cbr 100 ------- 1 0.0 2.0 48 48
- 0.58 0 1 cbr 100 ------- 1 0.0 2.0 48 48
r 0.5808 0 1 cbr 100 ------- 1 0.0 2.0 47 47
+ 0.5808 1 2 cbr 100 ------- 1 0.0 2.0 47 47
- 0.5808 1 2 cbr 100 ------- 1 0.0 2.0 47 47
r 0.582133 1 2 cbr 100 ------- 1 0.0 2.0 46 46
+ 0.59 0 1 cbr 100 ------- 1 0.0 2.0 49 49
- 0.59 0 1 cbr 100 ------- 1 0.0 2.0 49 49
r 0.5908 0 1 cbr 100 ------- 1 0.0 2.0 48 48
+ 0.5908 1 2 cbr 100 ------- 1 0.0 2.0 48 48
- 0.5908 1 2 cbr 100 ------- 1 0.0 2.0 48 48
r 0.592133 1 2 cbr 100 ------- 1 0.0 2.0 47 47
+ 0.6 0 1 cbr 100 ------- 1 0.0 2.0 50 50
- 0.6 0 1 cbr 100 ------- 1 0.0 2.0 50 50
r 0.6008 0 1 cbr 100 ------- 1 0.0 2.0 49 49
+ 0.6008 1 2 cbr 100 ------- 1 0.0 2.0 49 49
- 0.6008 1 2 cbr 100 ------- 1 0.0 2.0 49 49
r 0.602133 1 2 cbr 100 ------- 1 0.0 2.0 48 48
+ 0.61 0 1 cbr 100 ------- 1 0.0 2.0 51 51
- 0.61 0 1 cbr 100 ------- 1 0.0 2.0 51 51
r 0.6108 0 1 cbr 100 ------- 1 0.0 2.0 50 50
+ 0.6108 1 2 cbr 100 ------- 1 0.0 2.0 50 50
- 0.6108 1 2 cbr 100 ------- 1 0.0 2.0 50 50
r 0.612133 1 2 cbr 100 ------- 1 0.0 2.0 49 49
+ 0.62 0 1 cbr 100 ------- 1 0.0 2.0 52 52
- 0.62 0 1 cbr 100 ------- 1 0.0 2.0 52 52
r 0.6208 0 1 cbr 100 ------- 1 0.0 2.0 51 51
+ 0.6208 1 2 cbr 100 ------- 1 0.0 2.0 51 51
- 0.6208 1 2 cbr 100 ------- 1 0.0 2.0 51 51
r 0.622133 1 2 cbr 100 ------- 1 0.0 2.0 50 50
+ 0.63 0 1 cbr 100 ------- 1 0.0 2.0 53 53
- 0.63 0 1 cbr 100 ------- 1 0.0 2.0 53 53
r 0.6308 0 1 cbr 100 ------- 1 0.0 2.0 52 52
+ 0.6308 1 2 cbr 100 ------- 1 0.0 2.0 52 52
- 0.6308 1 2 cbr 100 ------- 1 0.0 2.0 52 52
r 0.632133 1 2 cbr 100 ------- 1 0.0 2.0 51 51
+ 0.64 0 1 cbr 100 ------- 1 0.0 2.0 54 54
- 0.64 0 1 cbr 100 ------- 1 0.0 2.0 54 54
r 0.6408 0 1 cbr 100 ------- 1 0.0 2.0 53 53
+ 0.6408 1 2 cbr 100 ------- 1 0.0 2.0 53 53
- 0.6408 1 2 cbr 100 ------- 1 0.0 2.0 53 53
r 0.642133 1 2 cbr 100 ------- 1 0.0 2.0 52 52
+ 0.65 0 1 cbr 100 ------- 1 0.0 2.0 55 55
- 0.65 0 1 cbr 100 ------- 1 0.0 2.0 55 55
r 0.6508 0 1 cbr 100 ------- 1 0.0 2.0 54 54
+ 0.6508 1 2 cbr 100 ------- 1 0.0 2.0 54 54
- 0.6508 1 2 cbr 100 ------- 1 0.0 2.0 54 54
r 0.652133 1 2 cbr 100 ------- 1 0.0 2.0 53 53
+ 0.66 0 1 cbr 100 ------- 1 0.0 2.0 56 56
- 0.66 0 1 cbr 100 ------- 1 0.0 2.0 56 56
r 0.6608 0 1 cbr 100 ------- 1 0.0 2.0 55 55
+ 0.6608 1 2 cbr 100 ------- 1 0.0 2.0 55 55
- 0.6608 1 2 cbr 100 ------- 1 0.0 2.0 55 55
r 0.662133 1 2 cbr 100 ------- 1 0.0 2.0 54 54
+ 0.67 0 1 cbr 100 ------- 1 0.0 2.0 57 57
- 0.67 0 1 cbr 100 ------- 1 0.0 2.0 57 57
r 0.6708 0 1 cbr 100 ------- 1 0.0 2.0 56 56
+ 0.6708 1 2 cbr 100 ------- 1 0.0 2.0 56 56
- 0.6708 1 2 cbr 100 ------- 1 0.0 2.0 56 56
r 0.672133 1 2 cbr 100 ------- 1 0.0 2.0 55 55
+ 0.68 0 1 cbr 100 ------- 1 0.0 2.0 58 58
- 0.68 0 1 cbr 100 ------- 1 0.0 2.0 58 58
r 0.6808 0 1 cbr 100 ------- 1 0.0 2.0 57 57
+ 0.6808 1 2 cbr 100 ------- 1 0.0 2.0 57 57
- 0.6808 1 2 cbr 100 ------- 1 0.0 2.0 57 57
r 0.682133 1 2 cbr 100 ------- 1 0.0 2.0 56 56
+ 0.69 0 1 cbr 100 ------- 1 0.0 2.0 59 59
- 0.69 0 1 cbr 100 ------- 1 0.0 2.0 59 59
r 0.6908 0 1 cbr 100 ------- 1 0.0 2.0 58 58
+ 0.6908 1 2 cbr 100 ------- 1 0.0 2.0 58 58
- 0.6908 1 2 cbr 100 ------- 1 0.0 2.0 58 58
r 0.692133 1 2 cbr 100 ------- 1 0.0 2.0 57 57
+ 0.7 0 1 cbr 100 ------- 1 0.0 2.0 60 60
- 0.7 0 1 cbr 100 ------- 1 0.0 2.0 60 60
r 0.7008 0 1 cbr 100 ------- 1 0.0 2.0 59 59
+ 0.7008 1 2 cbr 100 ------- 1 0.0 2.0 59 59
- 0.7008 1 2 cbr 100 ------- 1 0.0 2.0 59 59
r 0.702133 1 2 cbr 100 ------- 1 0.0 2.0 58 58
+ 0.71 0 1 cbr 100 ------- 1 0.0 2.0 61 61
- 0.71 0 1 cbr 100 ------- 1 0.0 2.0 61 61
r 0.7108 0 1 cbr 100 ------- 1 0.0 2.0 60 60
+ 0.7108 1 2 cbr 100 ------- 1 0.0 2.0 60 60
- 0.7108 1 2 cbr 100 ------- 1 0.0 2.0 60 60
r 0.712133 1 2 cbr 100 ------- 1 0.0 2.0 59 59
+ 0.72 0 1 cbr 100 ------- 1 0.0 2.0 62 62
- 0.72 0 1 cbr 100 ------- 1 0.0 2.0 62 62
r 0.7208 0 1 cbr 100 ------- 1 0.0 2.0 61 61
+ 0.7208 1 2 cbr 100 ------- 1 0.0 2.0 61 61
- 0.7208 1 2 cbr 100 ------- 1 0.0 2.0 61 61
r 0.722133 1 2 cbr 100 ------- 1 0.0 2.0 60 60
+ 0.73 0 1 cbr 100 ------- 1 0.0 2.0 63 63
- 0.73 0 1 cbr 100 ------- 1 0.0 2.0 63 63
r 0.7308 0 1 cbr 100 ------- 1 0.0 2.0 62 62
+ 0.7308 1 2 cbr 100 ------- 1 0.0 2.0 62 62
- 0.7308 1 2 cbr 100 ------- 1 0.0 2.0 62 62
r 0.732133 1 2 cbr 100 ------- 1 0.0 2.0 61 61
+ 0.74 0 1 cbr 100 ------- 1 0.0 2.0 64 64
- 0.74 0 1 cbr 100 ------- 1 0.0 2.0 64 64
r 0.7408 0 1 cbr 100 ------- 1 0.0 2.0 63 63
+ 0.7408 1 2 cbr 100 ------- 1 0.0 2.0 63 63
- 0.7408 1 2 cbr 100 ------- 1 0.0 2.0 63 63
r 0.742133 1 2 cbr 100 ------- 1 0.0 2.0 62 62
+ 0.75 0 1 cbr 100 ------- 1 0.0 2.0 65 65
- 0.75 0 1 cbr 100 ------- 1 0.0 2.0 65 65
r 0.7508 0 1 cbr 100 ------- 1 0.0 2.0 64 64
+ 0.7508 1 2 cbr 100 ------- 1 0.0 2.0 64 64
- 0.7508 1 2 cbr 100 ------- 1 0.0 2.0 64 64
r 0.752133 1 2 cbr 100 ------- 1 0.0 2.0 63 63
+ 0.76 0 1 cbr 100 ------- 1 0.0 2.0 66 66
- 0.76 0 1 cbr 100 ------- 1 0.0 2.0 66 66
r 0.7608 0 1 cbr 100 ------- 1 0.0 2.0 65 65
+ 0.7608 1 2 cbr 100 ------- 1 0.0 2.0 65 65
- 0.7608 1 2 cbr 100 ------- 1 0.0 2.0 65 65
r 0.762133 1 2 cbr 100 ------- 1 0.0 2.0 64 64
+ 0.77 0 1 cbr 100 ------- 1 0.0 2.0 67 67
- 0.77 0 1 cbr 100 ------- 1 0.0 2.0 67 67
r 0.7708 0 1 cbr 100 ------- 1 0.0 2.0 66 66
+ 0.7708 1 2 cbr 100 ------- 1 0.0 2.0 66 66
- 0.7708 1 2 cbr 100 ------- 1 0.0 2.0 66 66
r 0.772133 1 2 cbr 100 ------- 1 0.0 2.0 65 65
+ 0.78 0 1 cbr 100 ------- 1 0.0 2.0 68 68
- 0.78 0 1 cbr 100 ------- 1 0.0 2.0 68 68
r 0.7808 0 1 cbr 100 ------- 1 0.0 2.0 67 67
+ 0.7808 1 2 cbr 100 ------- 1 0.0 2.0 67 67
- 0.7808 1 2 cbr 100 ------- 1 0.0 2.0 67 67
r 0.782133 1 2 cbr 100 ------- 1 0.0 2.0 66 66
+ 0.79 0 1 cbr 100 ------- 1 0.0 2.0 69 69
- 0.79 0 1 cbr 100 ------- 1 0.0 2.0 69 69
r 0.7908 0 1 cbr 100 ------- 1 0.0 2.0 68 68
+ 0.7908 1 2 cbr 100 ------- 1 0.0 2.0 68 68
- 0.7908 1 2 cbr 100 ------- 1 0.0 2.0 68 68
r 0.792133 1 2 cbr 100 ------- 1 0.0 2.0 67 67
+ 0.8 0 1 cbr 100 ------- 1 0.0 2.0 70 70
- 0.8 0 1 cbr 100 ------- 1 0.0 2.0 70 70
r 0.8008 0 1 cbr 100 ------- 1 0.0 2.0 69 69
+ 0.8008 1 2 cbr 100 ------- 1 0.0 2.0 69 69
- 0.8008 1 2 cbr 100 ------- 1 0.0 2.0 69 69
r 0.802133 1 2 cbr 100 ------- 1 0.0 2.0 68 68
+ 0.81 0 1 cbr 100 ------- 1 0.0 2.0 71 71
- 0.81 0 1 cbr 100 ------- 1 0.0 2.0 71 71
r 0.8108 0 1 cbr 100 ------- 1 0.0 2.0 70 70
+ 0.8108 1 2 cbr 100 ------- 1 0.0 2.0 70 70
- 0.8108 1 2 cbr 100 ------- 1 0.0 2.0 70 70
r 0.812133 1 2 cbr 100 ------- 1 0.0 2.0 69 69
+ 0.82 0 1 cbr 100 ------- 1 0.0 2.0 72 72
- 0.82 0 1 cbr 100 ------- 1 0.0 2.0 72 72
r 0.8208 0 1 cbr 100 ------- 1 0.0 2.0 71 71
+ 0.8208 1 2 cbr 100 ------- 1 0.0 2.0 71 71
- 0.8208 1 2 cbr 100 ------- 1 0.0 2.0 71 71
r 0.822133 1 2 cbr 100 ------- 1 0.0 2.0 70 70
+ 0.83 0 1 cbr 100 ------- 1 0.0 2.0 73 73
- 0.83 0 1 cbr 100 ------- 1 0.0 2.0 73 73
r 0.8308 0 1 cbr 100 ------- 1 0.0 2.0 72 72
+ 0.8308 1 2 cbr 100 ------- 1 0.0 2.0 72 72
- 0.8308 1 2 cbr 100 ------- 1 0.0 2.0 72 72
r 0.832133 1 2 cbr 100 ------- 1 0.0 2.0 71 71
+ 0.84 0 1 cbr 100 ------- 1 0.0 2.0 74 74
- 0.84 0 1 cbr 100 ------- 1 0.0 2.0 74 74
r 0.8408 0 1 cbr 100 ------- 1 0.0 2.0 73 73
+ 0.8408 1 2 cbr 100 ------- 1 0.0 2.0 73 73
- 0.8408 1 2 cbr 100 ------- 1 0.0 2.0 73 73
r 0.842133 1 2 cbr 100 ------- 1 0.0 2.0 72 72
+ 0.85 0 1 cbr 100 ------- 1 0.0 2.0 75 75
- 0.85 0 1 cbr 100 ------- 1 0.0 2.0 75 75
r 0.8508 0 1 cbr 100 ------- 1 0.0 2.0 74 74
+ 0.8508 1 2 cbr 100 ------- 1 0.0 2.0 74 74
- 0.8508 1 2 cbr 100 ------- 1 0.0 2.0 74 74
r 0.852133 1 2 cbr 100 ------- 1 0.0 2.0 73 73
+ 0.86 0 1 cbr 100 ------- 1 0.0 2.0 76 76
- 0.86 0 1 cbr 100 ------- 1 0.0 2.0 76 76
r 0.8608 0 1 cbr 100 ------- 1 0.0 2.0 75 75
+ 0.8608 1 2 cbr 100 ------- 1 0.0 2.0 75 75
- 0.8608 1 2 cbr 100 ------- 1 0.0 2.0 75 75
r 0.862133 1 2 cbr 100 ------- 1 0.0 2.0 74 74
+ 0.87 0 1 cbr 100 ------- 1 0.0 2.0 77 77
- 0.87 0 1 cbr 100 ------- 1 0.0 2.0 77 77
r 0.8708 0 1 cbr 100 ------- 1 0.0 2.0 76 76
+ 0.8708 1 2 cbr 100 ------- 1 0.0 2.0 76 76
- 0.8708 1 2 cbr 100 ------- 1 0.0 2.0 76 76
r 0.872133 1 2 cbr 100 ------- 1 0.0 2.0 75 75
+ 0.88 0 1 cbr 100 ------- 1 0.0 2.0 78 78
- 0.88 0 1 cbr 100 ------- 1 0.0 2.0 78 78
r 0.8808 0 1 cbr 100 ------- 1 0.0 2.0 77 77
+ 0.8808 1 2 cbr 100 ------- 1 0.0 2.0 77 77
- 0.8808 1 2 cbr 100 ------- 1 0.0 2.0 77 77
r 0.882133 1 2 cbr 100 ------- 1 0.0 2.0 76 76
+ 0.89 0 1 cbr 100 ------- 1 0.0 2.0 79 79
- 0.89 0 1 cbr 100 ------- 1 0.0 2.0 79 79
r 0.8908 0 1 cbr 100 ------- 1 0.0 2.0 78 78
+ 0.8908 1 2 cbr 100 ------- 1 0.0 2.0 78 78
- 0.8908 1 2 cbr 100 ------- 1 0.0 2.0 78 78
r 0.892133 1 2 cbr 100 ------- 1 0.0 2.0 77 77
+ 0.9 0 1 cbr 100 ------- 1 0.0 2.0 80 80
- 0.9 0 1 cbr 100 ------- 1 0.0 2.0 80 80
r 0.9008 0 1 cbr 100 ------- 1 0.0 2.0 79 79
+ 0.9008 1 2 cbr 100 ------- 1 0.0 2.0 79 79
- 0.9008 1 2 cbr 100 ------- 1 0.0 2.0 79 79
r 0.902133 1 2 cbr 100 ------- 1 0.0 2.0 78 78
+ 0.91 0 1 cbr 100 ------- 1 0.0 2.0 81 81
- 0.91 0 1 cbr 100 ------- 1 0.0 2.0 81 81
r 0.9108 0 1 cbr 100 ------- 1 0.0 2.0 80 80
+ 0.9108 1 2 cbr 100 ------- 1 0.0 2.0 80 80
- 0.9108 1 2 cbr 100 ------- 1 0.0 2.0 80 80
r 0.912133 1 2 cbr 100 ------- 1 0.0 2.0 79 79
+ 0.92 0 1 cbr 100 ------- 1 0.0 2.0 82 82
- 0.92 0 1 cbr 100 ------- 1 0.0 2.0 82 82
r 0.9208 0 1 cbr 100 ------- 1 0.0 2.0 81 81
+ 0.9208 1 2 cbr 100 ------- 1 0.0 2.0 81 81
- 0.9208 1 2 cbr 100 ------- 1 0.0 2.0 81 81
r 0.922133 1 2 cbr 100 ------- 1 0.0 2.0 80 80
+ 0.93 0 1 cbr 100 ------- 1 0.0 2.0 83 83
- 0.93 0 1 cbr 100 ------- 1 0.0 2.0 83 83
r 0.9308 0 1 cbr 100 ------- 1 0.0 2.0 82 82
+ 0.9308 1 2 cbr 100 ------- 1 0.0 2.0 82 82
- 0.9308 1 2 cbr 100 ------- 1 0.0 2.0 82 82
r 0.932133 1 2 cbr 100 ------- 1 0.0 2.0 81 81
+ 0.94 0 1 cbr 100 ------- 1 0.0 2.0 84 84
- 0.94 0 1 cbr 100 ------- 1 0.0 2.0 84 84
r 0.9408 0 1 cbr 100 ------- 1 0.0 2.0 83 83
+ 0.9408 1 2 cbr 100 ------- 1 0.0 2.0 83 83
- 0.9408 1 2 cbr 100 ------- 1 0.0 2.0 83 83
r 0.942133 1 2 cbr 100 ------- 1 0.0 2.0 82 82
+ 0.95 0 1 cbr 100 ------- 1 0.0 2.0 85 85
- 0.95 0 1 cbr 100 ------- 1 0.0 2.0 85 85
r 0.9508 0 1 cbr 100 ------- 1 0.0 2.0 84 84
+ 0.9508 1 2 cbr 100 ------- 1 0.0 2.0 84 84
- 0.9508 1 2 cbr 100 ------- 1 0.0 2.0 84 84
r 0.952133 1 2 cbr 100 ------- 1 0.0 2.0 83 83
+ 0.96 0 1 cbr 100 ------- 1 0.0 2.0 86 86
- 0.96 0 1 cbr 100 ------- 1 0.0 2.0 86 86
r 0.9608 0 1 cbr 100 ------- 1 0.0 2.0 85 85
+ 0.9608 1 2 cbr 100 ------- 1 0.0 2.0 85 85
- 0.9608 1 2 cbr 100 ------- 1 0.0 2.0 85 85
r 0.962133 1 2 cbr 100 ------- 1 0.0 2.0 84 84
+ 0.97 0 1 cbr 100 ------- 1 0.0 2.0 87 87
- 0.97 0 1 cbr 100 ------- 1 0.0 2.0 87 87
r 0.9708 0 1 cbr 100 ------- 1 0.0 2.0 86 86
+ 0.9708 1 2 cbr 100 ------- 1 0.0 2.0 86 86
- 0.9708 1 2 cbr 100 ------- 1 0.0 2.0 86 86
r 0.972133 1 2 cbr 100 ------- 1 0.0 2.0 85 85
+ 0.98 0 1 cbr 100 ------- 1 0.0 2.0 88 88
- 0.98 0 1 cbr 100 ------- 1 0.0 2.0 88 88
r 0.9808 0 1 cbr 100 ------- 1 0.0 2.0 87 87
+ 0.9808 1 2 cbr 100 ------- 1 0.0 2.0 87 87
- 0.9808 1 2 cbr 100 ------- 1 0.0 2.0 87 87
r 0.982133 1 2 cbr 100 ------- 1 0.0 2.0 86 86
+ 0.99 0 1 cbr 100 ------- 1 0.0 2.0 89 89
- 0.99 0 1 cbr 100 ------- 1 0.0 2.0 89 89
r 0.9908 0 1 cbr 100 ------- 1 0.0 2.0 88 88
+ 0.9908 1 2 cbr 100 ------- 1 0.0 2.0 88 88
- 0.9908 1 2 cbr 100 ------- 1 0.0 2.0 88 88
r 0.992133 1 2 cbr 100 ------- 1 0.0 2.0 87 87
+ 1 0 1 cbr 100 ------- 1 0.0 2.0 90 90
- 1 0 1 cbr 100 ------- 1 0.0 2.0 90 90
r 1.0008 0 1 cbr 100 ------- 1 0.0 2.0 89 89
+ 1.0008 1 2 cbr 100 ------- 1 0.0 2.0 89 89
- 1.0008 1 2 cbr 100 ------- 1 0.0 2.0 89 89
r 1.002133 1 2 cbr 100 ------- 1 0.0 2.0 88 88
+ 1.01 0 1 cbr 100 ------- 1 0.0 2.0 91 91
- 1.01 0 1 cbr 100 ------- 1 0.0 2.0 91 91
r 1.0108 0 1 cbr 100 ------- 1 0.0 2.0 90 90
+ 1.0108 1 2 cbr 100 ------- 1 0.0 2.0 90 90
- 1.0108 1 2 cbr 100 ------- 1 0.0 2.0 90 90
r 1.012133 1 2 cbr 100 ------- 1 0.0 2.0 89 89
+ 1.02 0 1 cbr 100 ------- 1 0.0 2.0 92 92
- 1.02 0 1 cbr 100 ------- 1 0.0 2.0 92 92
r 1.0208 0 1 cbr 100 ------- 1 0.0 2.0 91 91
+ 1.0208 1 2 cbr 100 ------- 1 0.0 2.0 91 91
- 1.0208 1 2 cbr 100 ------- 1 0.0 2.0 91 91
r 1.022133 1 2 cbr 100 ------- 1 0.0 2.0 90 90
+ 1.03 0 1 cbr 100 ------- 1 0.0 2.0 93 93
- 1.03 0 1 cbr 100 ------- 1 0.0 2.0 93 93
r 1.0308 0 1 cbr 100 ------- 1 0.0 2.0 92 92
+ 1.0308 1 2 cbr 100 ------- 1 0.0 2.0 92 92
- 1.0308 1 2 cbr 100 ------- 1 0.0 2.0 92 92
r 1.032133 1 2 cbr 100 ------- 1 0.0 2.0 91 91
+ 1.04 0 1 cbr 100 ------- 1 0.0 2.0 94 94
- 1.04 0 1 cbr 100 ------- 1 0.0 2.0 94 94
r 1.0408 0 1 cbr 100 ------- 1 0.0 2.0 93 93
+ 1.0408 1 2 cbr 100 ------- 1 0.0 2.0 93 93
- 1.0408 1 2 cbr 100 ------- 1 0.0 2.0 93 93
r 1.042133 1 2 cbr 100 ------- 1 0.0 2.0 92 92
+ 1.05 0 1 cbr 100 ------- 1 0.0 2.0 95 95
- 1.05 0 1 cbr 100 ------- 1 0.0 2.0 95 95
r 1.0508 0 1 cbr 100 ------- 1 0.0 2.0 94 94
+ 1.0508 1 2 cbr 100 ------- 1 0.0 2.0 94 94
- 1.0508 1 2 cbr 100 ------- 1 0.0 2.0 94 94
r 1.052133 1 2 cbr 100 ------- 1 0.0 2.0 93 93
+ 1.06 0 1 cbr 100 ------- 1 0.0 2.0 96 96
- 1.06 0 1 cbr 100 ------- 1 0.0 2.0 96 96
r 1.0608 0 1 cbr 100 ------- 1 0.0 2.0 95 95
+ 1.0608 1 2 cbr 100 ------- 1 0.0 2.0 95 95
- 1.0608 1 2 cbr 100 ------- 1 0.0 2.0 95 95
r 1.062133 1 2 cbr 100 ------- 1 0.0 2.0 94 94
+ 1.07 0 1 cbr 100 ------- 1 0.0 2.0 97 97
- 1.07 0 1 cbr 100 ------- 1 0.0 2.0 97 97
r 1.0708 0 1 cbr 100 ------- 1 0.0 2.0 96 96
+ 1.0708 1 2 cbr 100 ------- 1 0.0 2.0 96 96
- 1.0708 1 2 cbr 100 ------- 1 0.0 2.0 96 96
r 1.072133 1 2 cbr 100 ------- 1 0.0 2.0 95 95
+ 1.08 0 1 cbr 100 ------- 1 0.0 2.0 98 98
- 1.08 0 1 cbr 100 ------- 1 0.0 2.0 98 98
r 1.0808 0 1 cbr 100 ------- 1 0.0 2.0 97 97
+ 1.0808 1 2 cbr 100 ------- 1 0.0 2.0 97 97
- 1.0808 1 2 cbr 100 ------- 1 0.0 2.0 97 97
r 1.082133 1 2 cbr 100 ------- 1 0.0 2.0 96 96
+ 1.09 0 1 cbr 100 ------- 1 0.0 2.0 99 99
- 1.09 0 1 cbr 100 ------- 1 0.0 2.0 99 99
r 1.0908 0 1 cbr 100 ------- 1 0.0 2.0 98 98
+ 1.0908 1 2 cbr 100 ------- 1 0.0 2.0 98 98
- 1.0908 1 2 cbr 100 ------- 1 0.0 2.0 98 98
r 1.092133 1 2 cbr 100 ------- 1 0.0 2.0 97 97
+ 1.1 0 1 cbr 100 ------- 1 0.0 2.0 100 100
- 1.1 0 1 cbr 100 ------- 1 0.0 2.0 100 100
r 1.1008 0 1 cbr 100 ------- 1 0.0 2.0 99 99
+ 1.1008 1 2 cbr 100 ------- 1 0.0 2.0 99 99
- 1.1008 1 2 cbr 100 ------- 1 0.0 2.0 99 99
r 1.102133 1 2 cbr 100 ------- 1 0.0 2.0 98 98
+ 1.11 0 1 cbr 100 ------- 1 0.0 2.0 101 101
- 1.11 0 1 cbr 100 ------- 1 0.0 2.0 101 101
r 1.1108 0 1 cbr 100 ------- 1 0.0 2.0 100 100
+ 1.1108 1 2 cbr 100 ------- 1 0.0 2.0 100 100
- 1.1108 1 2 cbr 100 ------- 1 0.0 2.0 100 100
r 1.112133 1 2 cbr 100 ------- 1 0.0 2.0 99 99
+ 1.12 0 1 cbr 100 ------- 1 0.0 2.0 102 102
- 1.12 0 1 cbr 100 ------- 1 0.0 2.0 102 102
r 1.1208 0 1 cbr 100 ------- 1 0.0 2.0 101 101
+ 1.1208 1 2 cbr 100 ------- 1 0.0 2.0 101 101
- 1.1208 1 2 cbr 100 ------- 1 0.0 2.0 101 101
r 1.122133 1 2 cbr 100 ------- 1 0.0 2.0 100 100
+ 1.13 0 1 cbr 100 ------- 1 0.0 2.0 103 103
- 1.13 0 1 cbr 100 ------- 1 0.0 2.0 103 103
r 1.1308 0 1 cbr 100 ------- 1 0.0 2.0 102 102
+ 1.1308 1 2 cbr 100 ------- 1 0.0 2.0 102 102
- 1.1308 1 2 cbr 100 ------- 1 0.0 2.0 102 102
r 1.132133 1 2 cbr 100 ------- 1 0.0 2.0 101 101
+ 1.14 0 1 cbr 100 ------- 1 0.0 2.0 104 104
- 1.14 0 1 cbr 100 ------- 1 0.0 2.0 104 104
r 1.1408 0 1 cbr 100 ------- 1 0.0 2.0 103 103
+ 1.1408 1 2 cbr 100 ------- 1 0.0 2.0 103 103
- 1.1408 1 2 cbr 100 ------- 1 0.0 2.0 103 103
r 1.142133 1 2 cbr 100 ------- 1 0.0 2.0 102 102
+ 1.15 0 1 cbr 100 ------- 1 0.0 2.0 105 105
- 1.15 0 1 cbr 100 ------- 1 0.0 2.0 105 105
r 1.1508 0 1 cbr 100 ------- 1 0.0 2.0 104 104
+ 1.1508 1 2 cbr 100 ------- 1 0.0 2.0 104 104
- 1.1508 1 2 cbr 100 ------- 1 0.0 2.0 104 104
r 1.152133 1 2 cbr 100 ------- 1 0.0 2.0 103 103
+ 1.16 0 1 cbr 100 ------- 1 0.0 2.0 106 106
- 1.16 0 1 cbr 100 ------- 1 0.0 2.0 106 106
r 1.1608 0 1 cbr 100 ------- 1 0.0 2.0 105 105
+ 1.1608 1 2 cbr 100 ------- 1 0.0 2.0 105 105
- 1.1608 1 2 cbr 100 ------- 1 0.0 2.0 105 105
r 1.162133 1 2 cbr 100 ------- 1 0.0 2.0 104 104
+ 1.17 0 1 cbr 100 ------- 1 0.0 2.0 107 107
- 1.17 0 1 cbr 100 ------- 1 0.0 2.0 107 107
r 1.1708 0 1 cbr 100 ------- 1 0.0 2.0 106 106
+ 1.1708 1 2 cbr 100 ------- 1 0.0 2.0 106 106
- 1.1708 1 2 cbr 100 ------- 1 0.0 2.0 106 106
r 1.172133 1 2 cbr 100 ------- 1 0.0 2.0 105 105
+ 1.18 0 1 cbr 100 ------- 1 0.0 2.0 108 108
- 1.18 0 1 cbr 100 ------- 1 0.0 2.0 108 108
r 1.1808 0 1 cbr 100 ------- 1 0.0 2.0 107 107
+ 1.1808 1 2 cbr 100 ------- 1 0.0 2.0 107 107
- 1.1808 1 2 cbr 100 ------- 1 0.0 2.0 107 107
r 1.182133 1 2 cbr 100 ------- 1 0.0 2.0 106 106
+ 1.19 0 1 cbr 100 ------- 1 0.0 2.0 109 109
- 1.19 0 1 cbr 100 ------- 1 0.0 2.0 109 109
r 1.1908 0 1 cbr 100 ------- 1 0.0 2.0 108 108
+ 1.1908 1 2 cbr 100 ------- 1 0.0 2.0 108 108
- 1.1908 1 2 cbr 100 ------- 1 0.0 2.0 108 108
r 1.192133 1 2 cbr 100 ------- 1 0.0 2.0 107 107
+ 1.2 0 1 cbr 100 ------- 1 0.0 2.0 110 110
- 1.2 0 1 cbr 100 ------- 1 0.0 2.0 110 110
r 1.2008 0 1 cbr 100 ------- 1 0.0 2.0 109 109
+ 1.2008 1 2 cbr 100 ------- 1 0.0 2.0 109 109
- 1.2008 1 2 cbr 100 ------- 1 0.0 2.0 109 109
r 1.202133 1 2 cbr 100 ------- 1 0.0 2.0 108 108
+ 1.21 0 1 cbr 100 ------- 1 0.0 2.0 111 111
- 1.21 0 1 cbr 100 ------- 1 0.0 2.0 111 111
r 1.2108 0 1 cbr 100 ------- 1 0.0 2.0 110 110
+ 1.2108 1 2 cbr 100 ------- 1 0.0 2.0 110 110
- 1.2108 1 2 cbr 100 ------- 1 0.0 2.0 110 110
r 1.212133 1 2 cbr 100 ------- 1 0.0 2.0 109 109
+ 1.22 0 1 cbr 100 ------- 1 0.0 2.0 112 112
- 1.22 0 1 cbr 100 ------- 1 0.0 2.0 112 112
r 1.2208 0 1 cbr 100 ------- 1 0.0 2.0 111 111
+ 1.2208 1 2 cbr 100 ------- 1 0.0 2.0 111 111