n -t 0 -s 0 -S DLABEL -l "Source" -L ""
n -t 0 -s 1 -S DLABEL -l "Router" -L ""
n -t 0 -s 2 -S DLABEL -l "Reciever" -L ""
V -t * -v 1.0a5 -a 0
A -t * -n 1 -p 0 -o 0x7fffffff -c 30 -a 1
A -t * -h 1 -m 1073741823 -s 0
c -t * -i 1 -n red
c -t * -i 2 -n blue
c -t * -i 3 -n green
n -t * -a 0 -s 0 -S UP -v circle -c black -i black
n -t * -a 1 -s 1 -S UP -v circle -c black -i black
n -t * -a 2 -s 2 -S UP -v circle -c black -i black
l -t * -s 0 -d 1 -S UP -r 1000000 -D 0.01 -c black
l -t * -s 1 -d 2 -S UP -r 600000 -D 0.01 -c black
+ -t 0.1 -s 0 -d 1 -p cbr -e 100 -c 1 -i 0 -a 1 -x {0.0 2.0 0 ------- null}
- -t 0.1 -s 0 -d 1 -p cbr -e 100 -c 1 -i 0 -a 1 -x {0.0 2.0 0 ------- null}
h -t 0.1 -s 0 -d 1 -p cbr -e 100 -c 1 -i 0 -a 1 -x {0.0 2.0 -1 ------- null}
+ -t 0.11 -s 0 -d 1 -p cbr -e 100 -c 1 -i 1 -a 1 -x {0.0 2.0 1 ------- null}
- -t 0.11 -s 0 -d 1 -p cbr -e 100 -c 1 -i 1 -a 1 -x {0.0 2.0 1 ------- null}
h -t 0.11 -s 0 -d 1 -p cbr -e 100 -c 1 -i 1 -a 1 -x {0.0 2.0 -1 ------- null}
r -t 0.1108 -s 0 -d 1 -p cbr -e 100 -c 1 -i 0 -a 1 -x {0.0 2.0 0 ------- null}
+ -t 0.1108 -s 1 -d 2 -p cbr -e 100 -c 1 -i 0 -a 1 -x {0.0 2.0 0 ------- null}
- -t 0.1108 -s 1 -d 2 -p cbr -e 100 -c 1 -i 0 -a 1 -x {0.0 2.0 0 ------- null}
h -t 0.1108 -s 1 -d 2 -p cbr -e 100 -c 1 -i 0 -a 1 -x {0.0 2.0 -1 ------- null}
+ -t 0.12 -s 0 -d 1 -p cbr -e 100 -c 1 -i 2 -a 1 -x {0.0 2.0 2 ------- null}
- -t 0.12 -s 0 -d 1 -p cbr -e 100 -c 1 -i 2 -a 1 -x {0.0 2.0 2 ------- null}
h -t 0.12 -s 0 -d 1 -p cbr -e 100 -c 1 -i 2 -a 1 -x {0.0 2.0 -1 ------- null}
r -t 0.1208 -s 0 -d 1 -p cbr -e 100 -c 1 -i 1 -a 1 -x {0.0 2.0 1 ------- null}
+ -t 0.1208 -s 1 -d 2 -p cbr -e 100 -c 1 -i 1 -a 1 -x {0.0 2.0 1 ------- null}
- -t 0.1208 -s 1 -d 2 -p cbr -e 100 -c 1 -i 1 -a 1 -x {0.0 2.0 1 ------- null}
h -t 0.1208 -s 1 -d 2 -p cbr -e 100 -c 1 -i 1 -a 1 -x {0.0 2.0 -1 ------- null}
r -t 0.122133333333333 -s 1 -d 2 -p cbr -e 100 -c 1 -i 0 -a 1 -x {0.0 2.0 0 ------- null}
+ -t 0.13 -s 0 -d 1 -p cbr -e 100 -c 1 -i 3 -a 1 -x {0.0 2.0 3 ------- null}
- -t 0.13 -s 0 -d 1 -p cbr -e 100 -c 1 -i 3 -a 1 -x {0.0 2.0 3 ------- null}
h -t 0.13 -s 0 -d 1 -p cbr -e 100 -c 1 -i 3 -a 1 -x {0.0 2.0 -1 ------- null}
r -t 0.1308 -s 0 -d 1 -p cbr -e 100 -c 1 -i 2 -a 1 -x {0.0 2.0 2 ------- null}
+ -t 0.1308 -s 1 -d 2 -p cbr -e 100 -c 1 -i 2 -a 1 -x {0.0 2.0 2 ------- null}
- -t 0.1308 -s 1 -d 2 -p cbr -e 100 -c 1 -i 2 -a 1 -x {0.0 2.0 2 ------- null}
h -t 0.1308 -s 1 -d 2 -p cbr -e 100 -c 1 -i 2 -a 1 -x {0.0 2.0 -1 ------- null}
r -t 0.132133333333333 -s 1 -d 2 -p cbr -e 100 -c 1 -i 1 -a 1 -x {0.0 2.0 1 ------- null}
+ -t 0.14 -s 0 -d 1 -p cbr -e 100 -c 1 -i 4 -a 1 -x {0.0 2.0 4 ------- null}
- -t 0.14 -s 0 -d 1 -p cbr -e 100 -c 1 -i 4 -a 1 -x {0.0 2.0 4 ------- null}
h -t 0.14 -s 0 -d 1 -p cbr -e 100 -c 1 -i 4 -a 1 -x {0.0 2.0 -1 ------- null}
r -t 0.1408 -s 0 -d 1 -p cbr -e 100 -c 1 -i 3 -a 1 -x {0.0 2.0 3 ------- null}
+ -t 0.1408 -s 1 -d 2 -p cbr -e 100 -c 1 -i 3 -a 1 -x {0.0 2.0 3 ------- null}
- -t 0.1408 -s 1 -d 2 -p cbr -e 100 -c 1 -i 3 -a 1 -x {0.0 2.0 3 ------- null}
h -t 0.1408 -s 1 -d 2 -p cbr -e 100 -c 1 -i 3 -a 1 -x {0.0 2.0 -1 ------- null}
r -t 0.142133333333333 -s 1 -d 2 -p cbr -e 100 -c 1 -i 2 -a 1 -x {0.0 2.0 2 ------- null}
+ -t 0.15 -s 0 -d 1 -p cbr -e 100 -c 1 -i 5 -a 1 -x {0.0 2.0 5 ------- null}
- -t 0.15 -s 0 -d 1 -p cbr -e 100 -c 1 -i 5 -a 1 -x {0.0 2.0 5 ------- null}
h -t 0.15 -s 0 -d 1 -p cbr -e 100 -c 1 -i 5 -a 1 -x {0.0 2.0 -1 ------- null}
r -t 0.1508 -s 0 -d 1 -p cbr -e 100 -c 1 -i 4 -a 1 -x {0.0 2.0 4 ------- null}
+ -t 0.1508 -s 1 -d 2 -p cbr -e 100 -c 1 -i 4 -a 1 -x {0.0 2.0 4 ------- null}
- -t 0.1508 -s 1 -d 2 -p cbr -e 100 -c 1 -i 4 -a 1 -x {0.0 2.0 4 ------- null}
h -t 0.1508 -s 1 -d 2 -p cbr -e 100 -c 1 -i 4 -a 1 -x {0.0 2.0 -1 ------- null}
r -t 0.152133333333333 -s 1 -d 2 -p cbr -e 100 -c 1 -i 3 -a 1 -x {0.0 2.0 3 ------- null}
+ -t 0.16 -s 0 -d 1 -p cbr -e 100 -c 1 -i 6 -a 1 -x {0.0 2.0 6 ------- null}
- -t 0.16 -s 0 -d 1 -p cbr -e 100 -c 1 -i 6 -a 1 -x {0.0 2.0 6 ------- null}
h -t 0.16 -s 0 -d 1 -p cbr -e 100 -c 1 -i 6 -a 1 -x {0.0 2.0 -1 ------- null}
r -t 0.1608 -s 0 -d 1 -p cbr -e 100 -c 1 -i 5 -a 1 -x {0.0 2.0 5 ------- null}
+ -t 0.1608 -s 1 -d 2 -p cbr -e 100 -c 1 -i 5 -a 1 -x {0.0 2.0 5 ------- null}
- -t 0.1608 -s 1 -d 2 -p cbr -e 100 -c 1 -i 5 -a 1 -x {0.0 2.0 5 ------- null}
h -t 0.1608 -s 1 -d 2 -p cbr -e 100 -c 1 -i 5 -a 1 -x {0.0 2.0 -1 ------- null}
r -t 0.162133333333333 -s 1 -d 2 -p cbr -e 100 -c 1 -i 4 -a 1 -x {0.0 2.0 4 ------- null}
+ -t 0.17 -s 0 -d 1 -p cbr -e 100 -c 1 -i 7 -a 1 -x {0.0 2.0 7 ------- null}
- -t 0.17 -s 0 -d 1 -p cbr -e 100 -c 1 -i 7 -a 1 -x {0.0 2.0 7 ------- null}
h -t 0.17 -s 0 -d 1 -p cbr -e 100 -c 1 -i 7 -a 1 -x {0.0 2.0 -1 ------- null}
r -t 0.1708 -s 0 -d 1 -p cbr -e 100 -c 1 -i 6 -a 1 -x {0.0 2.0 6 ------- null}
+ -t 0.1708 -s 1 -d 2 -p cbr -e 100 -c 1 -i 6 -a 1 -x {0.0 2.0 6 ------- null}
- -t 0.1708 -s 1 -d 2 -p cbr -e 100 -c 1 -i 6 -a 1 -x {0.0 2.0 6 ------- null}
h -t 0.1708 -s 1 -d 2 -p cbr -e 100 -c 1 -i 6 -a 1 -x {0.0 2.0 -1 ------- null}
r -t 0.172133333333333 -s 1 -d 2 -p cbr -e 100 -c 1 -i 5 -a 1 -x {0.0 2.0 5 ------- null}
+ -t 0.18 -s 0 -d 1 -p cbr -e 100 -c 1 -i 8 -a 1 -x {0.0 2.0 8 ------- null}
- -t 0.18 -s 0 -d 1 -p cbr -e 100 -c 1 -i 8 -a 1 -x {0.0 2.0 8 ------- null}
h -t 0.18 -s 0 -d 1 -p cbr -e 100 -c 1 -i 8 -a 1 -x {0.0 2.0 -1 ------- null}
r -t 0.1808 -s 0 -d 1 -p cbr -e 100 -c 1 -i 7 -a 1 -x {0.0 2.0 7 ------- null}
+ -t 0.1808 -s 1 -d 2 -p cbr -e 100 -c 1 -i 7 -a 1 -x {0.0 2.0 7 ------- null}
- -t 0.1808 -s 1 -d 2 -p cbr -e 100 -c 1 -i 7 -a 1 -x {0.0 2.0 7 ------- null}
h -t 0.1808 -s 1 -d 2 -p cbr -e 100 -c 1 -i 7 -a 1 -x {0.0 2.0 -1 ------- null}
r -t 0.182133333333333 -s 1 -d 2 -p cbr -e 100 -c 1 -i 6 -a 1 -x {0.0 2.0 6 ------- null}
+ -t 0.19 -s 0 -d 1 -p cbr -e 100 -c 1 -i 9 -a 1 -x {0.0 2.0 9 ------- null}
- -t 0.19 -s 0 -d 1 -p cbr -e 100 -c 1 -i 9 -a 1 -x {0.0 2.0 9 ------- null}
h -t 0.19 -s 0 -d 1 -p cbr -e 100 -c 1 -i 9 -a 1 -x {0.0 2.0 -1 ------- null}
r -t 0.1908 -s 0 -d 1 -p cbr -e 100 -c 1 -i 8 -a 1 -x {0.0 2.0 8 ------- null}
+ -t 0.1908 -s 1 -d 2 -p cbr -e 100 -c 1 -i 8 -a 1 -x {0.0 2.0 8 ------- null}
- -t 0.1908 -s 1 -d 2 -p cbr -e 100 -c 1 -i 8 -a 1 -x {0.0 2.0 8 ------- null}
h -t 0.1908 -s 1 -d 2 -p cbr -e 100 -c 1 -i 8 -a 1 -x {0.0 2.0 -1 ------- null}
r -t 0.192133333333333 -s 1 -d 2 -p cbr -e 100 -c 1 -i 7 -a 1 -x {0.0 2.0 7 ------- null}
+ -t 0.2 -s 0 -d 1 -p cbr -e 100 -c 1 -i 10 -a 1 -x {0.0 2.0 10 ------- null}
- -t 0.2 -s 0 -d 1 -p cbr -e 100 -c 1 -i 10 -a 1 -x {0.0 2.0 10 ------- null}
h -t 0.2 -s 0 -d 1 -p cbr -e 100 -c 1 -i 10 -a 1 -x {0.0 2.0 -1 ------- null}
r -t 0.2008 -s 0 -d 1 -p cbr -e 100 -c 1 -i 9 -a 1 -x {0.0 2.0 9 ------- null}
+ -t 0.2008 -s 1 -d 2 -p cbr -e 100 -c 1 -i 9 -a 1 -x {0.0 2.0 9 ------- null}
- -t 0.2008 -s 1 -d 2 -p cbr -e 100 -c 1 -i 9 -a 1 -x {0.0 2.0 9 ------- null}
h -t 0.2008 -s 1 -d 2 -p cbr -e 100 -c 1 -i 9 -a 1 -x {0.0 2.0 -1 ------- null}
r -t 0.202133333333333 -s 1 -d 2 -p cbr -e 100 -c 1 -i 8 -a 1 -x {0.0 2.0 8 ------- null}
+ -t 0.21 -s 0 -d 1 -p cbr -e 100 -c 1 -i 11 -a 1 -x {0.0 2.0 11 ------- null}
- -t 0.21 -s 0 -d 1 -p cbr -e 100 -c 1 -i 11 -a 1 -x {0.0 2.0 11 ------- null}
h -t 0.21 -s 0 -d 1 -p cbr -e 100 -c 1 -i 11 -a 1 -x {0.0 2.0 -1 ------- null}
r -t 0.2108 -s 0 -d 1 -p cbr -e 100 -c 1 -i 10 -a 1 -x {0.0 2.0 10 ------- null}
+ -t 0.2108 -s 1 -d 2 -p cbr -e 100 -c 1 -i 10 -a 1 -x {0.0 2.0 10 ------- null}
- -t 0.2108 -s 1 -d 2 -p cbr -e 100 -c 1 -i 10 -a 1 -x {0.0 2.0 10 ------- null}
h -t 0.2108 -s 1 -d 2 -p cbr -e 100 -c 1 -i 10 -a 1 -x {0.0 2.0 -1 ------- null}
r -t 0.212133333333333 -s 1 -d 2 -p cbr -e 100 -c 1 -i 9 -a 1 -x {0.0 2.0 9 ------- null}
+ -t 0.22 -s 0 -d 1 -p cbr -e 100 -c 1 -i 12 -a 1 -x {0.0 2.0 12 ------- null}
- -t 0.22 -s 0 -d 1 -p cbr -e 100 -c 1 -i 12 -a 1 -x {0.0 2.0 12 ------- null}
h -t 0.22 -s 0 -d 1 -p cbr -e 100 -c 1 -i 12 -a 1 -x {0.0 2.0 -1 ------- null}
r -t 0.2208 -s 0 -d 1 -p cbr -e 100 -c 1 -i 11 -a 1 -x {0.0 2.0 11 ------- null}
+ -t 0.2208 -s 1 -d 2 -p cbr -e 100 -c 1 -i 11 -a 1 -x {0.0 2.0 11 ------- null}
- -t 0.2208 -s 1 -d 2 -p cbr -e 100 -c 1 -i 11 -a 1 -x {0.0 2.0 11 ------- null}
h -t 0.2208 -s 1 -d 2 -p cbr -e 100 -c 1 -i 11 -a 1 -x {0.0 2.0 -1 ------- null}
r -t 0.222133333333333 -s 1 -d 2 -p cbr -e 100 -c 1 -i 10 -a 1 -x {0.0 2.0 10 ------- null}
+ -t 0.23 -s 0 -d 1 -p cbr -e 100 -c 1 -i 13 -a 1 -x {0.0 2.0 13 ------- null}
- -t 0.23 -s 0 -d 1 -p cbr -e 100 -c 1 -i 13 -a 1 -x {0.0 2.0 13 ------- null}
h -t 0.23 -s 0 -d 1 -p cbr -e 100 -c 1 -i 13 -a 1 -x {0.0 2.0 -1 ------- null}
r -t 0.2308 -s 0 -d 1 -p cbr -e 100 -c 1 -i 12 -a 1 -x {0.0 2.0 12 ------- null}
+ -t 0.2308 -s 1 -d 2 -p cbr -e 100 -c 1 -i 12 -a 1 -x {0.0 2.0 12 ------- null}
- -t 0.2308 -s 1 -d 2 -p cbr -e 100 -c 1 -i 12 -a 1 -x {0.0 2.0 12 ------- null}
h -t 0.2308 -s 1 -d 2 -p cbr -e 100 -c 1 -i 12 -a 1 -x {0.0 2.0 -1 ------- null}
r -t 0.232133333333333 -s 1 -d 2 -p cbr -e 100 -c 1 -i 11 -a 1 -x {0.0 2.0 11 ------- null}
+ -t 0.24 -s 0 -d 1 -p cbr -e 100 -c 1 -i 14 -a 1 -x {0.0 2.0 14 ------- null}
- -t 0.24 -s 0 -d 1 -p cbr -e 100 -c 1 -i 14 -a 1 -x {0.0 2.0 14 ------- null}
h -t 0.24 -s 0 -d 1 -p cbr -e 100 -c 1 -i 14 -a 1 -x {0.0 2.0 -1 ------- null}
r -t 0.2408 -s 0 -d 1 -p cbr -e 100 -c 1 -i 13 -a 1 -x {0.0 2.0 13 ------- null}
+ -t 0.2408 -s 1 -d 2 -p cbr -e 100 -c 1 -i 13 -a 1 -x {0.0 2.0 13 ------- null}
- -t 0.2408 -s 1 -d 2 -p cbr -e 100 -c 1 -i 13 -a 1 -x {0.0 2.0 13 ------- null}
h -t 0.2408 -s 1 -d 2 -p cbr -e 100 -c 1 -i 13 -a 1 -x {0.0 2.0 -1 ------- null}
r -t 0.242133333333333 -s 1 -d 2 -p cbr -e 100 -c 1 -i 12 -a 1 -x {0.0 2.0 12 ------- null}
+ -t 0.25 -s 0 -d 1 -p cbr -e 100 -c 1 -i 15 -a 1 -x {0.0 2.0 15 ------- null}
- -t 0.25 -s 0 -d 1 -p cbr -e 100 -c 1 -i 15 -a 1 -x {0.0 2.0 15 ------- null}
h -t 0.25 -s 0 -d 1 -p cbr -e 100 -c 1 -i 15 -a 1 -x {0.0 2.0 -1 ------- null}
r -t 0.2508 -s 0 -d 1 -p cbr -e 100 -c 1 -i 14 -a 1 -x {0.0 2.0 14 ------- null}
+ -t 0.2508 -s 1 -d 2 -p cbr -e 100 -c 1 -i 14 -a 1 -x {0.0 2.0 14 ------- null}
- -t 0.2508 -s 1 -d 2 -p cbr -e 100 -c 1 -i 14 -a 1 -x {0.0 2.0 14 ------- null}
h -t 0.2508 -s 1 -d 2 -p cbr -e 100 -c 1 -i 14 -a 1 -x {0.0 2.0 -1 ------- null}
r -t 0.252133333333333 -s 1 -d 2 -p cbr -e 100 -c 1 -i 13 -a 1 -x {0.0 2.0 13 ------- null}
+ -t 0.26 -s 0 -d 1 -p cbr -e 100 -c 1 -i 16 -a 1 -x {0.0 2.0 16 ------- null}
- -t 0.26 -s 0 -d 1 -p cbr -e 100 -c 1 -i 16 -a 1 -x {0.0 2.0 16 ------- null}
h -t 0.26 -s 0 -d 1 -p cbr -e 100 -c 1 -i 16 -a 1 -x {0.0 2.0 -1 ------- null}
r -t 0.2608 -s 0 -d 1 -p cbr -e 100 -c 1 -i 15 -a 1 -x {0.0 2.0 15 ------- null}
+ -t 0.2608 -s 1 -d 2 -p cbr -e 100 -c 1 -i 15 -a 1 -x {0.0 2.0 15 ------- null}
- -t 0.2608 -s 1 -d 2 -p cbr -e 100 -c 1 -i 15 -a 1 -x {0.0 2.0 15 ------- null}
h -t 0.2608 -s 1 -d 2 -p cbr -e 100 -c 1 -i 15 -a 1 -x {0.0 2.0 -1 ------- null}
r -t 0.262133333333333 -s 1 -d 2 -p cbr -e 100 -c 1 -i 14 -a 1 -x {0.0 2.0 14 ------- null}
+ -t 0.27 -s 0 -d 1 -p cbr -e 100 -c 1 -i 17 -a 1 -x {0.0 2.0 17 ------- null}
- -t 0.27 -s 0 -d 1 -p cbr -e 100 -c 1 -i 17 -a 1 -x {0.0 2.0 17 ------- null}
h -t 0.27 -s 0 -d 1 -p cbr -e 100 -c 1 -i 17 -a 1 -x {0.0 2.0 -1 ------- null}
r -t 0.2708 -s 0 -d 1 -p cbr -e 100 -c 1 -i 16 -a 1 -x {0.0 2.0 16 ------- null}
+ -t 0.2708 -s 1 -d 2 -p cbr -e 100 -c 1 -i 16 -a 1 -x {0.0 2.0 16 ------- null}
- -t 0.2708 -s 1 -d 2 -p cbr -e 100 -c 1 -i 16 -a 1 -x {0.0 2.0 16 ------- null}
h -t 0.2708 -s 1 -d 2 -p cbr -e 100 -c 1 -i 16 -a 1 -x {0.0 2.0 -1 ------- null}
r -t 0.272133333333333 -s 1 -d 2 -p cbr -e 100 -c 1 -i 15 -a 1 -x {0.0 2.0 15 ------- null}
+ -t 0.28 -s 0 -d 1 -p cbr -e 100 -c 1 -i 18 -a 1 -x {0.0 2.0 18 ------- null}
- -t 0.28 -s 0 -d 1 -p cbr -e 100 -c 1 -i 18 -a 1 -x {0.0 2.0 18 ------- null}
h -t 0.28 -s 0 -d 1 -p cbr -e 100 -c 1 -i 18 -a 1 -x {0.0 2.0 -1 ------- null}
r -t 0.2808 -s 0 -d 1 -p cbr -e 100 -c 1 -i 17 -a 1 -x {0.0 2.0 17 ------- null}
+ -t 0.2808 -s 1 -d 2 -p cbr -e 100 -c 1 -i 17 -a 1 -x {0.0 2.0 17 ------- null}
- -t 0.2808 -s 1 -d 2 -p cbr -e 100 -c 1 -i 17 -a 1 -x {0.0 2.0 17 ------- null}
h -t 0.2808 -s 1 -d 2 -p cbr -e 100 -c 1 -i 17 -a 1 -x {0.0 2.0 -1 ------- null}
r -t 0.282133333333333 -s 1 -d 2 -p cbr -e 100 -c 1 -i 16 -a 1 -x {0.0 2.0 16 ------- null}
+ -t 0.29 -s 0 -d 1 -p cbr -e 100 -c 1 -i 19 -a 1 -x {0.0 2.0 19 ------- null}
- -t 0.29 -s 0 -d 1 -p cbr -e 100 -c 1 -i 19 -a 1 -x {0.0 2.0 19 ------- null}
h -t 0.29 -s 0 -d 1 -p cbr -e 100 -c 1 -i 19 -a 1 -x {0.0 2.0 -1 ------- null}
r -t 0.2908 -s 0 -d 1 -p cbr -e 100 -c 1 -i 18 -a 1 -x {0.0 2.0 18 ------- null}
+ -t 0.2908 -s 1 -d 2 -p cbr -e 100 -c 1 -i 18 -a 1 -x {0.0 2.0 18 ------- null}
- -t 0.2908 -s 1 -d 2 -p cbr -e 100 -c 1 -i 18 -a 1 -x {0.0 2.0 18 ------- null}
h -t 0.2908 -s 1 -d 2 -p cbr -e 100 -c 1 -i 18 -a 1 -x {0.0 2.0 -1 ------- null}
r -t 0.292133333333333 -s 1 -d 2 -p cbr -e 100 -c 1 -i 17 -a 1 -x {0.0 2.0 17 ------- null}
+ -t 0.3 -s 0 -d 1 -p cbr -e 100 -c 1 -i 20 -a 1 -x {0.0 2.0 20 ------- null}
- -t 0.3 -s 0 -d 1 -p cbr -e 100 -c 1 -i 20 -a 1 -x {0.0 2.0 20 ------- null}
h -t 0.3 -s 0 -d 1 -p cbr -e 100 -c 1 -i 20 -a 1 -x {0.0 2.0 -1 ------- null}
r -t 0.3008 -s 0 -d 1 -p cbr -e 100 -c 1 -i 19 -a 1 -x {0.0 2.0 19 ------- null}
+ -t 0.3008 -s 1 -d 2 -p cbr -e 100 -c 1 -i 19 -a 1 -x {0.0 2.0 19 ------- null}
- -t 0.3008 -s 1 -d 2 -p cbr -e 100 -c 1 -i 19 -a 1 -x {0.0 2.0 19 ------- null}
h -t 0.3008 -s 1 -d 2 -p cbr -e 100 -c 1 -i 19 -a 1 -x {0.0 2.0 -1 ------- null}
r -t 0.302133333333333 -s 1 -d 2 -p cbr -e 100 -c 1 -i 18 -a 1 -x {0.0 2.0 18 ------- null}
+ -t 0.31 -s 0 -d 1 -p cbr -e 100 -c 1 -i 21 -a 1 -x {0.0 2.0 21 ------- null}
- -t 0.31 -s 0 -d 1 -p cbr -e 100 -c 1 -i 21 -a 1 -x {0.0 2.0 21 ------- null}
h -t 0.31 -s 0 -d 1 -p cbr -e 100 -c 1 -i 21 -a 1 -x {0.0 2.0 -1 ------- null}
r -t 0.3108 -s 0 -d 1 -p cbr -e 100 -c 1 -i 20 -a 1 -x {0.0 2.0 20 ------- null}
+ -t 0.3108 -s 1 -d 2 -p cbr -e 100 -c 1 -i 20 -a 1 -x {0.0 2.0 20 ------- null}
- -t 0.3108 -s 1 -d 2 -p cbr -e 100 -c 1 -i 20 -a 1 -x {0.0 2.0 20 ------- null}
h -t 0.3108 -s 1 -d 2 -p cbr -e 100 -c 1 -i 20 -a 1 -x {0.0 2.0 -1 ------- null}
r -t 0.312133333333333 -s 1 -d 2 -p cbr -e 100 -c 1 -i 19 -a 1 -x {0.0 2.0 19 ------- null}
+ -t 0.32 -s 0 -d 1 -p cbr -e 100 -c 1 -i 22 -a 1 -x {0.0 2.0 22 ------- null}
- -t 0.32 -s 0 -d 1 -p cbr -e 100 -c 1 -i 22 -a 1 -x {0.0 2.0 22 ------- null}
h -t 0.32 -s 0 -d 1 -p cbr -e 100 -c 1 -i 22 -a 1 -x {0.0 2.0 -1 ------- null}
r -t 0.3208 -s 0 -d 1 -p cbr -e 100 -c 1 -i 21 -a 1 -x {0.0 2.0 21 ------- null}
+ -t 0.3208 -s 1 -d 2 -p cbr -e 100 -c 1 -i 21 -a 1 -x {0.0 2.0 21 ------- null}
- -t 0.3208 -s 1 -d 2 -p cbr -e 100 -c 1 -i 21 -a 1 -x {0.0 2.0 21 ------- null}
h -t 0.3208 -s 1 -d 2 -p cbr -e 100 -c 1 -i 21 -a 1 -x {0.0 2.0 -1 ------- null}
r -t 0.322133333333333 -s 1 -d 2 -p cbr -e 100 -c 1 -i 20 -a 1 -x {0.0 2.0 20 ------- null}
+ -t 0.33 -s 0 -d 1 -p cbr -e 100 -c 1 -i 23 -a 1 -x {0.0 2.0 23 ------- null}
- -t 0.33 -s 0 -d 1 -p cbr -e 100 -c 1 -i 23 -a 1 -x {0.0 2.0 23 ------- null}
h -t 0.33 -s 0 -d 1 -p cbr -e 100 -c 1 -i 23 -a 1 -x {0.0 2.0 -1 ------- null}
r -t 0.3308 -s 0 -d 1 -p cbr -e 100 -c 1 -i 22 -a 1 -x {0.0 2.0 22 ------- null}
+ -t 0.3308 -s 1 -d 2 -p cbr -e 100 -c 1 -i 22 -a 1 -x {0.0 2.0 22 ------- null}
- -t 0.3308 -s 1 -d 2 -p cbr -e 100 -c 1 -i 22 -a 1 -x {0.0 2.0 22 ------- null}
h -t 0.3308 -s 1 -d 2 -p cbr -e 100 -c 1 -i 22 -a 1 -x {0.0 2.0 -1 ------- null}
r -t 0.332133333333334 -s 1 -d 2 -p cbr -e 100 -c 1 -i 21 -a 1 -x {0.0 2.0 21 ------- null}
+ -t 0.34 -s 0 -d 1 -p cbr -e 100 -c 1 -i 24 -a 1 -x {0.0 2.0 24 ------- null}
- -t 0.34 -s 0 -d 1 -p cbr -e 100 -c 1 -i 24 -a 1 -x {0.0 2.0 24 ------- null}
h -t 0.34 -s 0 -d 1 -p cbr -e 100 -c 1 -i 24 -a 1 -x {0.0 2.0 -1 ------- null}
r -t 0.3408 -s 0 -d 1 -p cbr -e 100 -c 1 -i 23 -a 1 -x {0.0 2.0 23 ------- null}
+ -t 0.3408 -s 1 -d 2 -p cbr -e 100 -c 1 -i 23 -a 1 -x {0.0 2.0 23 ------- null}
- -t 0.3408 -s 1 -d 2 -p cbr -e 100 -c 1 -i 23 -a 1 -x {0.0 2.0 23 ------- null}
h -t 0.3408 -s 1 -d 2 -p cbr -e 100 -c 1 -i 23 -a 1 -x {0.0 2.0 -1 ------- null}
r -t 0.342133333333334 -s 1 -d 2 -p cbr -e 100 -c 1 -i 22 -a 1 -x {0.0 2.0 22 ------- null}
+ -t 0.35 -s 0 -d 1 -p cbr -e 100 -c 1 -i 25 -a 1 -x {0.0 2.0 25 ------- null}
- -t 0.35 -s 0 -d 1 -p cbr -e 100 -c 1 -i 25 -a 1 -x {0.0 2.0 25 ------- null}
h -t 0.35 -s 0 -d 1 -p cbr -e 100 -c 1 -i 25 -a 1 -x {0.0 2.0 -1 ------- null}
r -t 0.3508 -s 0 -d 1 -p cbr -e 100 -c 1 -i 24 -a 1 -x {0.0 2.0 24 ------- null}
+ -t 0.3508 -s 1 -d 2 -p cbr -e 100 -c 1 -i 24 -a 1 -x {0.0 2.0 24 ------- null}
- -t 0.3508 -s 1 -d 2 -p cbr -e 100 -c 1 -i 24 -a 1 -x {0.0 2.0 24 ------- null}
h -t 0.3508 -s 1 -d 2 -p cbr -e 100 -c 1 -i 24 -a 1 -x {0.0 2.0 -1 ------- null}
r -t 0.352133333333334 -s 1 -d 2 -p cbr -e 100 -c 1 -i 23 -a 1 -x {0.0 2.0 23 ------- null}
+ -t 0.36 -s 0 -d 1 -p cbr -e 100 -c 1 -i 26 -a 1 -x {0.0 2.0 26 ------- null}
- -t 0.36 -s 0 -d 1 -p cbr -e 100 -c 1 -i 26 -a 1 -x {0.0 2.0 26 ------- null}
h -t 0.36 -s 0 -d 1 -p cbr -e 100 -c 1 -i 26 -a 1 -x {0.0 2.0 -1 ------- null}
r -t 0.3608 -s 0 -d 1 -p cbr -e 100 -c 1 -i 25 -a 1 -x {0.0 2.0 25 ------- null}
+ -t 0.3608 -s 1 -d 2 -p cbr -e 100 -c 1 -i 25 -a 1 -x {0.0 2.0 25 ------- null}
- -t 0.3608 -s 1 -d 2 -p cbr -e 100 -c 1 -i 25 -a 1 -x {0.0 2.0 25 ------- null}
h -t 0.3608 -s 1 -d 2 -p cbr -e 100 -c 1 -i 25 -a 1 -x {0.0 2.0 -1 ------- null}
r -t 0.362133333333334 -s 1 -d 2 -p cbr -e 100 -c 1 -i 24 -a 1 -x {0.0 2.0 24 ------- null}
+ -t 0.37 -s 0 -d 1 -p cbr -e 100 -c 1 -i 27 -a 1 -x {0.0 2.0 27 ------- null}
- -t 0.37 -s 0 -d 1 -p cbr -e 100 -c 1 -i 27 -a 1 -x {0.0 2.0 27 ------- null}
h -t 0.37 -s 0 -d 1 -p cbr -e 100 -c 1 -i 27 -a 1 -x {0.0 2.0 -1 ------- null}
r -t 0.3708 -s 0 -d 1 -p cbr -e 100 -c 1 -i 26 -a 1 -x {0.0 2.0 26 ------- null}
+ -t 0.3708 -s 1 -d 2 -p cbr -e 100 -c 1 -i 26 -a 1 -x {0.0 2.0 26 ------- null}
- -t 0.3708 -s 1 -d 2 -p cbr -e 100 -c 1 -i 26 -a 1 -x {0.0 2.0 26 ------- null}
h -t 0.3708 -s 1 -d 2 -p cbr -e 100 -c 1 -i 26 -a 1 -x {0.0 2.0 -1 ------- null}
r -t 0.372133333333334 -s 1 -d 2 -p cbr -e 100 -c 1 -i 25 -a 1 -x {0.0 2.0 25 ------- null}
+ -t 0.38 -s 0 -d 1 -p cbr -e 100 -c 1 -i 28 -a 1 -x {0.0 2.0 28 ------- null}
- -t 0.38 -s 0 -d 1 -p cbr -e 100 -c 1 -i 28 -a 1 -x {0.0 2.0 28 ------- null}
h -t 0.38 -s 0 -d 1 -p cbr -e 100 -c 1 -i 28 -a 1 -x {0.0 2.0 -1 ------- null}
r -t 0.3808 -s 0 -d 1 -p cbr -e 100 -c 1 -i 27 -a 1 -x {0.0 2.0 27 ------- null}
+ -t 0.3808 -s 1 -d 2 -p cbr -e 100 -c 1 -i 27 -a 1 -x {0.0 2.0 27 ------- null}
- -t 0.3808 -s 1 -d 2 -p cbr -e 100 -c 1 -i 27 -a 1 -x {0.0 2.0 27 ------- null}
h -t 0.3808 -s 1 -d 2 -p cbr -e 100 -c 1 -i 27 -a 1 -x {0.0 2.0 -1 ------- null}
r -t 0.382133333333334 -s 1 -d 2 -p cbr -e 100 -c 1 -i 26 -a 1 -x {0.0 2.0 26 ------- null}
+ -t 0.39 -s 0 -d 1 -p cbr -e 100 -c 1 -i 29 -a 1 -x {0.0 2.0 29 ------- null}
- -t 0.39 -s 0 -d 1 -p cbr -e 100 -c 1 -i 29 -a 1 -x {0.0 2.0 29 ------- null}
h -t 0.39 -s 0 -d 1 -p cbr -e 100 -c 1 -i 29 -a 1 -x {0.0 2.0 -1 ------- null}
r -t 0.3908 -s 0 -d 1 -p cbr -e 100 -c 1 -i 28 -a 1 -x {0.0 2.0 28 ------- null}
+ -t 0.3908 -s 1 -d 2 -p cbr -e 100 -c 1 -i 28 -a 1 -x {0.0 2.0 28 ------- null}
- -t 0.3908 -s 1 -d 2 -p cbr -e 100 -c 1 -i 28 -a 1 -x {0.0 2.0 28 ------- null}
h -t 0.3908 -s 1 -d 2 -p cbr -e 100 -c 1 -i 28 -a 1 -x {0.0 2.0 -1 ------- null}
r -t 0.392133333333334 -s 1 -d 2 -p cbr -e 100 -c 1 -i 27 -a 1 -x {0.0 2.0 27 ------- null}
+ -t 0.4 -s 0 -d 1 -p cbr -e 100 -c 1 -i 30 -a 1 -x {0.0 2.0 30 ------- null}
- -t 0.4 -s 0 -d 1 -p cbr -e 100 -c 1 -i 30 -a 1 -x {0.0 2.0 30 ------- null}
h -t 0.4 -s 0 -d 1 -p cbr -e 100 -c 1 -i 30 -a 1 -x {0.0 2.0 -1 ------- null}
r -t 0.4008 -s 0 -d 1 -p cbr -e 100 -c 1 -i 29 -a 1 -x {0.0 2.0 29 ------- null}
+ -t 0.4008 -s 1 -d 2 -p cbr -e 100 -c 1 -i 29 -a 1 -x {0.0 2.0 29 ------- null}
- -t 0.4008 -s 1 -d 2 -p cbr -e 100 -c 1 -i 29 -a 1 -x {0.0 2.0 29 ------- null}
h -t 0.4008 -s 1 -d 2 -p cbr -e 100 -c 1 -i 29 -a 1 -x {0.0 2.0 -1 ------- null}
r -t 0.402133333333334 -s 1 -d 2 -p cbr -e 100 -c 1 -i 28 -a 1 -x {0.0 2.0 28 ------- null}
+ -t 0.41 -s 0 -d 1 -p cbr -e 100 -c 1 -i 31 -a 1 -x {0.0 2.0 31 ------- null}
- -t 0.41 -s 0 -d 1 -p cbr -e 100 -c 1 -i 31 -a 1 -x {0.0 2.0 31 ------- null}
h -t 0.41 -s 0 -d 1 -p cbr -e 100 -c 1 -i 31 -a 1 -x {0.0 2.0 -1 ------- null}
r -t 0.4108 -s 0 -d 1 -p cbr -e 100 -c 1 -i 30 -a 1 -x {0.0 2.0 30 ------- null}
+ -t 0.4108 -s 1 -d 2 -p cbr -e 100 -c 1 -i 30 -a 1 -x {0.0 2.0 30 ------- null}
- -t 0.4108 -s 1 -d 2 -p cbr -e 100 -c 1 -i 30 -a 1 -x {0.0 2.0 30 ------- null}
h -t 0.4108 -s 1 -d 2 -p cbr -e 100 -c 1 -i 30 -a 1 -x {0.0 2.0 -1 ------- null}
r -t 0.412133333333334 -s 1 -d 2 -p cbr -e 100 -c 1 -i 29 -a 1 -x {0.0 2.0 29 ------- null}
+ -t 0.42 -s 0 -d 1 -p cbr -e 100 -c 1 -i 32 -a 1 -x {0.0 2.0 32 ------- null}
- -t 0.42 -s 0 -d 1 -p cbr -e 100 -c 1 -i 32 -a 1 -x {0.0 2.0 32 ------- null}
h -t 0.42 -s 0 -d 1 -p cbr -e 100 -c 1 -i 32 -a 1 -x {0.0 2.0 -1 ------- null}
r -t 0.4208 -s 0 -d 1 -p cbr -e 100 -c 1 -i 31 -a 1 -x {0.0 2.0 31 ------- null}
+ -t 0.4208 -s 1 -d 2 -p cbr -e 100 -c 1 -i 31 -a 1 -x {0.0 2.0 31 ------- null}
- -t 0.4208 -s 1 -d 2 -p cbr -e 100 -c 1 -i 31 -a 1 -x {0.0 2.0 31 ------- null}
h -t 0.4208 -s 1 -d 2 -p cbr -e 100 -c 1 -i 31 -a 1 -x {0.0 2.0 -1 ------- null}
r -t 0.422133333333334 -s 1 -d 2 -p cbr -e 100 -c 1 -i 30 -a 1 -x {0.0 2.0 30 ------- null}
+ -t 0.43 -s 0 -d 1 -p cbr -e 100 -c 1 -i 33 -a 1 -x {0.0 2.0 33 ------- null}
- -t 0.43 -s 0 -d 1 -p cbr -e 100 -c 1 -i 33 -a 1 -x {0.0 2.0 33 ------- null}
h -t 0.43 -s 0 -d 1 -p cbr -e 100 -c 1 -i 33 -a 1 -x {0.0 2.0 -1 ------- null}
r -t 0.4308 -s 0 -d 1 -p cbr -e 100 -c 1 -i 32 -a 1 -x {0.0 2.0 32 ------- null}
+ -t 0.4308 -s 1 -d 2 -p cbr -e 100 -c 1 -i 32 -a 1 -x {0.0 2.0 32 ------- null}
- -t 0.4308 -s 1 -d 2 -p cbr -e 100 -c 1 -i 32 -a 1 -x {0.0 2.0 32 ------- null}
h -t 0.4308 -s 1 -d 2 -p cbr -e 100 -c 1 -i 32 -a 1 -x {0.0 2.0 -1 ------- null}
r -t 0.432133333333334 -s 1 -d 2 -p cbr -e 100 -c 1 -i 31 -a 1 -x {0.0 2.0 31 ------- null}
+ -t 0.44 -s 0 -d 1 -p cbr -e 100 -c 1 -i 34 -a 1 -x {0.0 2.0 34 ------- null}
- -t 0.44 -s 0 -d 1 -p cbr -e 100 -c 1 -i 34 -a 1 -x {0.0 2.0 34 ------- null}
h -t 0.44 -s 0 -d 1 -p cbr -e 100 -c 1 -i 34 -a 1 -x {0.0 2.0 -1 ------- null}
r -t 0.4408 -s 0 -d 1 -p cbr -e 100 -c 1 -i 33 -a 1 -x {0.0 2.0 33 ------- null}
+ -t 0.4408 -s 1 -d 2 -p cbr -e 100 -c 1 -i 33 -a 1 -x {0.0 2.0 33 ------- null}
- -t 0.4408 -s 1 -d 2 -p cbr -e 100 -c 1 -i 33 -a 1 -x {0.0 2.0 33 ------- null}
h -t 0.4408 -s 1 -d 2 -p cbr -e 100 -c 1 -i 33 -a 1 -x {0.0 2.0 -1 ------- null}
r -t 0.442133333333334 -s 1 -d 2 -p cbr -e 100 -c 1 -i 32 -a 1 -x {0.0 2.0 32 ------- null}
+ -t 0.45 -s 0 -d 1 -p cbr -e 100 -c 1 -i 35 -a 1 -x {0.0 2.0 35 ------- null}
- -t 0.45 -s 0 -d 1 -p cbr -e 100 -c 1 -i 35 -a 1 -x {0.0 2.0 35 ------- null}
h -t 0.45 -s 0 -d 1 -p cbr -e 100 -c 1 -i 35 -a 1 -x {0.0 2.0 -1 ------- null}
r -t 0.4508 -s 0 -d 1 -p cbr -e 100 -c 1 -i 34 -a 1 -x {0.0 2.0 34 ------- null}
+ -t 0.4508 -s 1 -d 2 -p cbr -e 100 -c 1 -i 34 -a 1 -x {0.0 2.0 34 ------- null}
- -t 0.4508 -s 1 -d 2 -p cbr -e 100 -c 1 -i 34 -a 1 -x {0.0 2.0 34 ------- null}
h -t 0.4508 -s 1 -d 2 -p cbr -e 100 -c 1 -i 34 -a 1 -x {0.0 2.0 -1 ------- null}
r -t 0.452133333333334 -s 1 -d 2 -p cbr -e 100 -c 1 -i 33 -a 1 -x {0.0 2.0 33 ------- null}
+ -t 0.46 -s 0 -d 1 -p cbr -e 100 -c 1 -i 36 -a 1 -x {0.0 2.0 36 ------- null}
- -t 0.46 -s 0 -d 1 -p cbr -e 100 -c 1 -i 36 -a 1 -x {0.0 2.0 36 ------- null}
h -t 0.46 -s 0 -d 1 -p cbr -e 100 -c 1 -i 36 -a 1 -x {0.0 2.0 -1 ------- null}
r -t 0.4608 -s 0 -d 1 -p cbr -e 100 -c 1 -i 35 -a 1 -x {0.0 2.0 35 ------- null}
+ -t 0.4608 -s 1 -d 2 -p cbr -e 100 -c 1 -i 35 -a 1 -x {0.0 2.0 35 ------- null}
- -t 0.4608 -s 1 -d 2 -p cbr -e 100 -c 1 -i 35 -a 1 -x {0.0 2.0 35 ------- null}
h -t 0.4608 -s 1 -d 2 -p cbr -e 100 -c 1 -i 35 -a 1 -x {0.0 2.0 -1 ------- null}
r -t 0.462133333333334 -s 1 -d 2 -p cbr -e 100 -c 1 -i 34 -a 1 -x {0.0 2.0 34 ------- null}
+ -t 0.47 -s 0 -d 1 -p cbr -e 100 -c 1 -i 37 -a 1 -x {0.0 2.0 37 ------- null}
- -t 0.47 -s 0 -d 1 -p cbr -e 100 -c 1 -i 37 -a 1 -x {0.0 2.0 37 ------- null}
h -t 0.47 -s 0 -d 1 -p cbr -e 100 -c 1 -i 37 -a 1 -x {0.0 2.0 -1 ------- null}
r -t 0.4708 -s 0 -d 1 -p cbr -e 100 -c 1 -i 36 -a 1 -x {0.0 2.0 36 ------- null}
+ -t 0.4708 -s 1 -d 2 -p cbr -e 100 -c 1 -i 36 -a 1 -x {0.0 2.0 36 ------- null}
- -t 0.4708 -s 1 -d 2 -p cbr -e 100 -c 1 -i 36 -a 1 -x {0.0 2.0 36 ------- null}
h -t 0.4708 -s 1 -d 2 -p cbr -e 100 -c 1 -i 36 -a 1 -x {0.0 2.0 -1 ------- null}
r -t 0.472133333333334 -s 1 -d 2 -p cbr -e 100 -c 1 -i 35 -a 1 -x {0.0 2.0 35 ------- null}
+ -t 0.48 -s 0 -d 1 -p cbr -e 100 -c 1 -i 38 -a 1 -x {0.0 2.0 38 ------- null}
- -t 0.48 -s 0 -d 1 -p cbr -e 100 -c 1 -i 38 -a 1 -x {0.0 2.0 38 ------- null}
h -t 0.48 -s 0 -d 1 -p cbr -e 100 -c 1 -i 38 -a 1 -x {0.0 2.0 -1 ------- null}
r -t 0.4808 -s 0 -d 1 -p cbr -e 100 -c 1 -i 37 -a 1 -x {0.0 2.0 37 ------- null}
+ -t 0.4808 -s 1 -d 2 -p cbr -e 100 -c 1 -i 37 -a 1 -x {0.0 2.0 37 ------- null}
- -t 0.4808 -s 1 -d 2 -p cbr -e 100 -c 1 -i 37 -a 1 -x {0.0 2.0 37 ------- null}
h -t 0.4808 -s 1 -d 2 -p cbr -e 100 -c 1 -i 37 -a 1 -x {0.0 2.0 -1 ------- null}
r -t 0.482133333333334 -s 1 -d 2 -p cbr -e 100 -c 1 -i 36 -a 1 -x {0.0 2.0 36 ------- null}
+ -t 0.49 -s 0 -d 1 -p cbr -e 100 -c 1 -i 39 -a 1 -x {0.0 2.0 39 ------- null}
- -t 0.49 -s 0 -d 1 -p cbr -e 100 -c 1 -i 39 -a 1 -x {0.0 2.0 39 ------- null}
h -t 0.49 -s 0 -d 1 -p cbr -e 100 -c 1 -i 39 -a 1 -x {0.0 2.0 -1 ------- null}
r -t 0.4908 -s 0 -d 1 -p cbr -e 100 -c 1 -i 38 -a 1 -x {0.0 2.0 38 ------- null}
+ -t 0.4908 -s 1 -d 2 -p cbr -e 100 -c 1 -i 38 -a 1 -x {0.0 2.0 38 ------- null}
- -t 0.4908 -s 1 -d 2 -p cbr -e 100 -c 1 -i 38 -a 1 -x {0.0 2.0 38 ------- null}
h -t 0.4908 -s 1 -d 2 -p cbr -e 100 -c 1 -i 38 -a 1 -x {0.0 2.0 -1 ------- null}
r -t 0.492133333333334 -s 1 -d 2 -p cbr -e 100 -c 1 -i 37 -a 1 -x {0.0 2.0 37 ------- null}
+ -t 0.5 -s 0 -d 1 -p cbr -e 100 -c 1 -i 40 -a 1 -x {0.0 2.0 40 ------- null}
- -t 0.5 -s 0 -d 1 -p cbr -e 100 -c 1 -i 40 -a 1 -x {0.0 2.0 40 ------- null}
h -t 0.5 -s 0 -d 1 -p cbr -e 100 -c 1 -i 40 -a 1 -x {0.0 2.0 -1 ------- null}
r -t 0.5008 -s 0 -d 1 -p cbr -e 100 -c 1 -i 39 -a 1 -x {0.0 2.0 39 ------- null}
+ -t 0.5008 -s 1 -d 2 -p cbr -e 100 -c 1 -i 39 -a 1 -x {0.0 2.0 39 ------- null}
- -t 0.5008 -s 1 -d 2 -p cbr -e 100 -c 1 -i 39 -a 1 -x {0.0 2.0 39 ------- null}
h -t 0.5008 -s 1 -d 2 -p cbr -e 100 -c 1 -i 39 -a 1 -x {0.0 2.0 -1 ------- null}
r -t 0.502133333333334 -s 1 -d 2 -p cbr -e 100 -c 1 -i 38 -a 1 -x {0.0 2.0 38 ------- null}
+ -t 0.51 -s 0 -d 1 -p cbr -e 100 -c 1 -i 41 -a 1 -x {0.0 2.0 41 ------- null}
- -t 0.51 -s 0 -d 1 -p cbr -e 100 -c 1 -i 41 -a 1 -x {0.0 2.0 41 ------- null}
h -t 0.51 -s 0 -d 1 -p cbr -e 100 -c 1 -i 41 -a 1 -x {0.0 2.0 -1 ------- null}
r -t 0.5108 -s 0 -d 1 -p cbr -e 100 -c 1 -i 40 -a 1 -x {0.0 2.0 40 ------- null}
+ -t 0.5108 -s 1 -d 2 -p cbr -e 100 -c 1 -i 40 -a 1 -x {0.0 2.0 40 ------- null}
- -t 0.5108 -s 1 -d 2 -p cbr -e 100 -c 1 -i 40 -a 1 -x {0.0 2.0 40 ------- null}
h -t 0.5108 -s 1 -d 2 -p cbr -e 100 -c 1 -i 40 -a 1 -x {0.0 2.0 -1 ------- null}
r -t 0.512133333333334 -s 1 -d 2 -p cbr -e 100 -c 1 -i 39 -a 1 -x {0.0 2.0 39 ------- null}
+ -t 0.52 -s 0 -d 1 -p cbr -e 100 -c 1 -i 42 -a 1 -x {0.0 2.0 42 ------- null}
- -t 0.52 -s 0 -d 1 -p cbr -e 100 -c 1 -i 42 -a 1 -x {0.0 2.0 42 ------- null}
h -t 0.52 -s 0 -d 1 -p cbr -e 100 -c 1 -i 42 -a 1 -x {0.0 2.0 -1 ------- null}
r -t 0.5208 -s 0 -d 1 -p cbr -e 100 -c 1 -i 41 -a 1 -x {0.0 2.0 41 ------- null}
+ -t 0.5208 -s 1 -d 2 -p cbr -e 100 -c 1 -i 41 -a 1 -x {0.0 2.0 41 ------- null}
- -t 0.5208 -s 1 -d 2 -p cbr -e 100 -c 1 -i 41 -a 1 -x {0.0 2.0 41 ------- null}
h -t 0.5208 -s 1 -d 2 -p cbr -e 100 -c 1 -i 41 -a 1 -x {0.0 2.0 -1 ------- null}
r -t 0.522133333333334 -s 1 -d 2 -p cbr -e 100 -c 1 -i 40 -a 1 -x {0.0 2.0 40 ------- null}
+ -t 0.53 -s 0 -d 1 -p cbr -e 100 -c 1 -i 43 -a 1 -x {0.0 2.0 43 ------- null}
- -t 0.53 -s 0 -d 1 -p cbr -e 100 -c 1 -i 43 -a 1 -x {0.0 2.0 43 ------- null}
h -t 0.53 -s 0 -d 1 -p cbr -e 100 -c 1 -i 43 -a 1 -x {0.0 2.0 -1 ------- null}
r -t 0.5308 -s 0 -d 1 -p cbr -e 100 -c 1 -i 42 -a 1 -x {0.0 2.0 42 ------- null}
+ -t 0.5308 -s 1 -d 2 -p cbr -e 100 -c 1 -i 42 -a 1 -x {0.0 2.0 42 ------- null}
- -t 0.5308 -s 1 -d 2 -p cbr -e 100 -c 1 -i 42 -a 1 -x {0.0 2.0 42 ------- null}
h -t 0.5308 -s 1 -d 2 -p cbr -e 100 -c 1 -i 42 -a 1 -x {0.0 2.0 -1 ------- null}
r -t 0.532133333333334 -s 1 -d 2 -p cbr -e 100 -c 1 -i 41 -a 1 -x {0.0 2.0 41 ------- null}
+ -t 0.54 -s 0 -d 1 -p cbr -e 100 -c 1 -i 44 -a 1 -x {0.0 2.0 44 ------- null}
- -t 0.54 -s 0 -d 1 -p cbr -e 100 -c 1 -i 44 -a 1 -x {0.0 2.0 44 ------- null}
h -t 0.54 -s 0 -d 1 -p cbr -e 100 -c 1 -i 44 -a 1 -x {0.0 2.0 -1 ------- null}
r -t 0.5408 -s 0 -d 1 -p cbr -e 100 -c 1 -i 43 -a 1 -x {0.0 2.0 43 ------- null}
+ -t 0.5408 -s 1 -d 2 -p cbr -e 100 -c 1 -i 43 -a 1 -x {0.0 2.0 43 ------- null}
- -t 0.5408 -s 1 -d 2 -p cbr -e 100 -c 1 -i 43 -a 1 -x {0.0 2.0 43 ------- null}
h -t 0.5408 -s 1 -d 2 -p cbr -e 100 -c 1 -i 43 -a 1 -x {0.0 2.0 -1 ------- null}
r -t 0.542133333333334 -s 1 -d 2 -p cbr -e 100 -c 1 -i 42 -a 1 -x {0.0 2.0 42 ------- null}
+ -t 0.55 -s 0 -d 1 -p cbr -e 100 -c 1 -i 45 -a 1 -x {0.0 2.0 45 ------- null}
- -t 0.55 -s 0 -d 1 -p cbr -e 100 -c 1 -i 45 -a 1 -x {0.0 2.0 45 ------- null}
h -t 0.55 -s 0 -d 1 -p cbr -e 100 -c 1 -i 45 -a 1 -x {0.0 2.0 -1 ------- null}
r -t 0.5508 -s 0 -d 1 -p cbr -e 100 -c 1 -i 44 -a 1 -x {0.0 2.0 44 ------- null}
+ -t 0.5508 -s 1 -d 2 -p cbr -e 100 -c 1 -i 44 -a 1 -x {0.0 2.0 44 ------- null}
- -t 0.5508 -s 1 -d 2 -p cbr -e 100 -c 1 -i 44 -a 1 -x {0.0 2.0 44 ------- null}
h -t 0.5508 -s 1 -d 2 -p cbr -e 100 -c 1 -i 44 -a 1 -x {0.0 2.0 -1 ------- null}
r -t 0.552133333333334 -s 1 -d 2 -p cbr -e 100 -c 1 -i 43 -a 1 -x {0.0 2.0 43 ------- null}
+ -t 0.56 -s 0 -d 1 -p cbr -e 100 -c 1 -i 46 -a 1 -x {0.0 2.0 46 ------- null}