+ 0.1 0 1 cbr 100 ------- 1 0.0 2.0 0 0
- 0.1 0 1 cbr 100 ------- 1 0.0 2.0 0 0
r 0.1108 0 1 cbr 100 ------- 1 0.0 2.0 0 0
+ 0.1108 1 2 cbr 100 ------- 1 0.0 2.0 0 0
- 0.1108 1 2 cbr 100 ------- 1 0.0 2.0 0 0
r 0.1228 1 2 cbr 100 ------- 1 0.0 2.0 0 0
+ 0.2 0 1 cbr 100 ------- 1 0.0 2.0 1 1
- 0.2 0 1 cbr 100 ------- 1 0.0 2.0 1 1
r 0.2108 0 1 cbr 100 ------- 1 0.0 2.0 1 1
+ 0.2108 1 2 cbr 100 ------- 1 0.0 2.0 1 1
- 0.2108 1 2 cbr 100 ------- 1 0.0 2.0 1 1
r 0.2228 1 2 cbr 100 ------- 1 0.0 2.0 1 1
+ 0.3 0 1 cbr 100 ------- 1 0.0 2.0 2 2
- 0.3 0 1 cbr 100 ------- 1 0.0 2.0 2 2
r 0.3108 0 1 cbr 100 ------- 1 0.0 2.0 2 2
+ 0.3108 1 2 cbr 100 ------- 1 0.0 2.0 2 2
- 0.3108 1 2 cbr 100 ------- 1 0.0 2.0 2 2
r 0.3228 1 2 cbr 100 ------- 1 0.0 2.0 2 2
+ 0.4 0 1 cbr 100 ------- 1 0.0 2.0 3 3
- 0.4 0 1 cbr 100 ------- 1 0.0 2.0 3 3
r 0.4108 0 1 cbr 100 ------- 1 0.0 2.0 3 3
+ 0.4108 1 2 cbr 100 ------- 1 0.0 2.0 3 3
- 0.4108 1 2 cbr 100 ------- 1 0.0 2.0 3 3
r 0.4228 1 2 cbr 100 ------- 1 0.0 2.0 3 3
+ 0.5 0 1 cbr 100 ------- 1 0.0 2.0 4 4
- 0.5 0 1 cbr 100 ------- 1 0.0 2.0 4 4
r 0.5108 0 1 cbr 100 ------- 1 0.0 2.0 4 4
+ 0.5108 1 2 cbr 100 ------- 1 0.0 2.0 4 4
- 0.5108 1 2 cbr 100 ------- 1 0.0 2.0 4 4
r 0.5228 1 2 cbr 100 ------- 1 0.0 2.0 4 4
+ 0.6 0 1 cbr 100 ------- 1 0.0 2.0 5 5
- 0.6 0 1 cbr 100 ------- 1 0.0 2.0 5 5
r 0.6108 0 1 cbr 100 ------- 1 0.0 2.0 5 5
+ 0.6108 1 2 cbr 100 ------- 1 0.0 2.0 5 5
- 0.6108 1 2 cbr 100 ------- 1 0.0 2.0 5 5
r 0.6228 1 2 cbr 100 ------- 1 0.0 2.0 5 5
+ 0.7 0 1 cbr 100 ------- 1 0.0 2.0 6 6
- 0.7 0 1 cbr 100 ------- 1 0.0 2.0 6 6
r 0.7108 0 1 cbr 100 ------- 1 0.0 2.0 6 6
+ 0.7108 1 2 cbr 100 ------- 1 0.0 2.0 6 6
- 0.7108 1 2 cbr 100 ------- 1 0.0 2.0 6 6
r 0.7228 1 2 cbr 100 ------- 1 0.0 2.0 6 6
+ 0.8 0 1 cbr 100 ------- 1 0.0 2.0 7 7
- 0.8 0 1 cbr 100 ------- 1 0.0 2.0 7 7
r 0.8108 0 1 cbr 100 ------- 1 0.0 2.0 7 7
+ 0.8108 1 2 cbr 100 ------- 1 0.0 2.0 7 7
- 0.8108 1 2 cbr 100 ------- 1 0.0 2.0 7 7
r 0.8228 1 2 cbr 100 ------- 1 0.0 2.0 7 7
+ 0.9 0 1 cbr 100 ------- 1 0.0 2.0 8 8
- 0.9 0 1 cbr 100 ------- 1 0.0 2.0 8 8
r 0.9108 0 1 cbr 100 ------- 1 0.0 2.0 8 8
+ 0.9108 1 2 cbr 100 ------- 1 0.0 2.0 8 8
- 0.9108 1 2 cbr 100 ------- 1 0.0 2.0 8 8
r 0.9228 1 2 cbr 100 ------- 1 0.0 2.0 8 8
+ 1 0 1 cbr 100 ------- 1 0.0 2.0 9 9
- 1 0 1 cbr 100 ------- 1 0.0 2.0 9 9
r 1.0108 0 1 cbr 100 ------- 1 0.0 2.0 9 9
+ 1.0108 1 2 cbr 100 ------- 1 0.0 2.0 9 9
- 1.0108 1 2 cbr 100 ------- 1 0.0 2.0 9 9
r 1.0228 1 2 cbr 100 ------- 1 0.0 2.0 9 9
